 Entering Gaussian System, Link 0=g09
 Initial command:
 /usr/software/gaussian/g09.revD01/l1.exe "/scr/mpark/Gr_Cis_1/Gau-25822.inp" -scrdir="/scr/mpark/Gr_Cis_1/"
 Entering Link 1 = /usr/software/gaussian/g09.revD01/l1.exe PID=     25823.
  
 Copyright (c) 1988,1990,1992,1993,1995,1998,2003,2009,2013,
            Gaussian, Inc.  All Rights Reserved.
  
 This is part of the Gaussian(R) 09 program.  It is based on
 the Gaussian(R) 03 system (copyright 2003, Gaussian, Inc.),
 the Gaussian(R) 98 system (copyright 1998, Gaussian, Inc.),
 the Gaussian(R) 94 system (copyright 1995, Gaussian, Inc.),
 the Gaussian 92(TM) system (copyright 1992, Gaussian, Inc.),
 the Gaussian 90(TM) system (copyright 1990, Gaussian, Inc.),
 the Gaussian 88(TM) system (copyright 1988, Gaussian, Inc.),
 the Gaussian 86(TM) system (copyright 1986, Carnegie Mellon
 University), and the Gaussian 82(TM) system (copyright 1983,
 Carnegie Mellon University). Gaussian is a federally registered
 trademark of Gaussian, Inc.
  
 This software contains proprietary and confidential information,
 including trade secrets, belonging to Gaussian, Inc.
  
 This software is provided under written license and may be
 used, copied, transmitted, or stored only in accord with that
 written license.
  
 The following legend is applicable only to US Government
 contracts under FAR:
  
                    RESTRICTED RIGHTS LEGEND
  
 Use, reproduction and disclosure by the US Government is
 subject to restrictions as set forth in subparagraphs (a)
 and (c) of the Commercial Computer Software - Restricted
 Rights clause in FAR 52.227-19.
  
 Gaussian, Inc.
 340 Quinnipiac St., Bldg. 40, Wallingford CT 06492
  
  
 ---------------------------------------------------------------
 Warning -- This program may not be used in any manner that
 competes with the business of Gaussian, Inc. or will provide
 assistance to any competitor of Gaussian, Inc.  The licensee
 of this program is prohibited from giving any competitor of
 Gaussian, Inc. access to this program.  By using this program,
 the user acknowledges that Gaussian, Inc. is engaged in the
 business of creating and licensing software in the field of
 computational chemistry and represents and warrants to the
 licensee that it is not a competitor of Gaussian, Inc. and that
 it will not use this program in any manner prohibited above.
 ---------------------------------------------------------------
  

 Cite this work as:
 Gaussian 03, Revision D.01,
 M. J. Frisch, G. W. Trucks, H. B. Schlegel, G. E. Scuseria, 
 M. A. Robb, J. R. Cheeseman, G. Scalmani, V. Barone, B. Mennucci, 
 G. A. Petersson, H. Nakatsuji, M. Caricato, X. Li, H. P. Hratchian, 
 A. F. Izmaylov, J. Bloino, G. Zheng, J. L. Sonnenberg, M. Hada, 
 M. Ehara, K. Toyota, R. Fukuda, J. Hasegawa, M. Ishida, T. Nakajima, 
 Y. Honda, O. Kitao, H. Nakai, T. Vreven, J. A. Montgomery, Jr., 
 J. E. Peralta, F. Ogliaro, M. Bearpark, J. J. Heyd, E. Brothers, 
 K. N. Kudin, V. N. Staroverov, T. Keith, R. Kobayashi, J. Normand, 
 K. Raghavachari, A. Rendell, J. C. Burant, S. S. Iyengar, J. Tomasi, 
 M. Cossi, N. Rega, J. M. Millam, M. Klene, J. E. Knox, J. B. Cross, 
 V. Bakken, C. Adamo, J. Jaramillo, R. Gomperts, R. E. Stratmann, 
 O. Yazyev, A. J. Austin, R. Cammi, C. Pomelli, J. W. Ochterski, 
 R. L. Martin, K. Morokuma, V. G. Zakrzewski, G. A. Voth, 
 P. Salvador, J. J. Dannenberg, S. Dapprich, A. D. Daniels, 
 O. Farkas, J. B. Foresman, J. V. Ortiz, J. Cioslowski, 
 and D. J. Fox, Gaussian, Inc., Wallingford CT, 2013.
 
 ******************************************
 Gaussian 03:  AM64L-G09RevD.01 24-Apr-2013
                24-Feb-2015 
 ******************************************
 %mem=40GB
 %nprocshared=12
 Will use up to   12 processors via shared memory.
 %chk=Ex_Cis.chk
 ----------------------------------------------------------------------
 #p opt=tight freq=raman rb3lyp/6-31+g(d) guess=read geom=connectivity 
 int=ultrafine
 ----------------------------------------------------------------------
 1/7=10,14=-1,18=20,19=15,26=4,38=1,57=2/1,3;
 2/9=110,12=2,17=6,18=5,40=1/2;
 3/5=1,6=6,7=11,11=2,16=1,25=1,30=1,71=1,74=-5,75=-5,116=1/1,2,3;
 4/5=1/1;
 5/5=2,38=6/2;
 6/7=2,8=2,9=2,10=2,28=1/1;
 7//1,2,3,16;
 1/7=10,14=-1,18=20,19=15,26=4/3(2);
 2/9=110/2;
 99//99;
 2/9=110/2;
 3/5=1,6=6,7=11,11=2,16=1,25=1,30=1,71=1,74=-5,75=-5,116=1/1,2,3;
 4/5=5,16=3,69=1/1;
 5/5=2,38=5/2;
 7//1,2,3,16;
 1/7=10,14=-1,18=20,19=15,26=4/3(-5);
 2/9=110/2;
 6/7=2,8=2,9=2,10=2,19=2,28=1/1;
 99/9=1/99;
 Leave Link    1 at Tue Feb 24 08:00:09 2015, MaxMem=  5368709120 cpu:         0.8
 (Enter /usr/software/gaussian/g09.revD01/l101.exe)
 -------------------
 Title Card Required
 -------------------
 Symbolic Z-matrix:
 Charge =  0 Multiplicity = 1
 C                    -0.06994   3.04763   0.61612 
 C                     0.05002   3.14722  -0.77706 
 C                     0.15      4.38687  -1.41498 
 C                     0.13002   5.53592  -0.61696 
 C                     0.00006   5.44864   0.78375 
 C                    -0.09992   4.20057   1.40644 
 C                    -0.19991   1.65678   1.13188 
 C                    -0.01999   0.68309  -0.03714 
 H                     0.24997   4.46379  -2.49868 
 H                     0.21001   6.5121   -1.09501 
 H                    -0.00992   6.35566   1.38137 
 H                    -0.20988   4.10022   2.48831 
 C                     0.01999  -0.68309  -0.03714 
 C                     0.19991  -1.65678   1.13188 
 C                     0.06994  -3.04763   0.61612 
 C                    -0.05002  -3.14722  -0.77706 
 C                     0.09992  -4.20057   1.40644 
 C                    -0.15     -4.38687  -1.41498 
 C                    -0.00006  -5.44864   0.78375 
 H                     0.20988  -4.10022   2.48831 
 C                    -0.13002  -5.53592  -0.61696 
 H                    -0.24997  -4.46379  -2.49868 
 H                     0.00992  -6.35566   1.38137 
 H                    -0.21001  -6.5121   -1.09501 
 S                     0.06      1.56308  -1.58313 
 S                    -0.06     -1.56308  -1.58313 
 O                     0.49982  -1.36207   2.31272 
 O                    -0.49982   1.36207   2.31272 
 
 NAtoms=     28 NQM=       28 NQMF=       0 NMMI=      0 NMMIF=      0
                NMic=       0 NMicF=      0.
                    Isotopes and Nuclear Properties:
 (Nuclear quadrupole moments (NQMom) in fm**2, nuclear magnetic moments (NMagM)
  in nuclear magnetons)

  Atom         1           2           3           4           5           6           7           8           9          10
 IAtWgt=          12          12          12          12          12          12          12          12           1           1
 AtmWgt=  12.0000000  12.0000000  12.0000000  12.0000000  12.0000000  12.0000000  12.0000000  12.0000000   1.0078250   1.0078250
 NucSpn=           0           0           0           0           0           0           0           0           1           1
 AtZEff=   0.0000000   0.0000000   0.0000000   0.0000000   0.0000000   0.0000000   0.0000000   0.0000000   0.0000000   0.0000000
 NQMom=    0.0000000   0.0000000   0.0000000   0.0000000   0.0000000   0.0000000   0.0000000   0.0000000   0.0000000   0.0000000
 NMagM=    0.0000000   0.0000000   0.0000000   0.0000000   0.0000000   0.0000000   0.0000000   0.0000000   2.7928460   2.7928460
 AtZNuc=   6.0000000   6.0000000   6.0000000   6.0000000   6.0000000   6.0000000   6.0000000   6.0000000   1.0000000   1.0000000

  Atom        11          12          13          14          15          16          17          18          19          20
 IAtWgt=           1           1          12          12          12          12          12          12          12           1
 AtmWgt=   1.0078250   1.0078250  12.0000000  12.0000000  12.0000000  12.0000000  12.0000000  12.0000000  12.0000000   1.0078250
 NucSpn=           1           1           0           0           0           0           0           0           0           1
 AtZEff=   0.0000000   0.0000000   0.0000000   0.0000000   0.0000000   0.0000000   0.0000000   0.0000000   0.0000000   0.0000000
 NQMom=    0.0000000   0.0000000   0.0000000   0.0000000   0.0000000   0.0000000   0.0000000   0.0000000   0.0000000   0.0000000
 NMagM=    2.7928460   2.7928460   0.0000000   0.0000000   0.0000000   0.0000000   0.0000000   0.0000000   0.0000000   2.7928460
 AtZNuc=   1.0000000   1.0000000   6.0000000   6.0000000   6.0000000   6.0000000   6.0000000   6.0000000   6.0000000   1.0000000

  Atom        21          22          23          24          25          26          27          28
 IAtWgt=          12           1           1           1          32          32          16          16
 AtmWgt=  12.0000000   1.0078250   1.0078250   1.0078250  31.9720718  31.9720718  15.9949146  15.9949146
 NucSpn=           0           1           1           1           0           0           0           0
 AtZEff=   0.0000000   0.0000000   0.0000000   0.0000000   0.0000000   0.0000000   0.0000000   0.0000000
 NQMom=    0.0000000   0.0000000   0.0000000   0.0000000   0.0000000   0.0000000   0.0000000   0.0000000
 NMagM=    0.0000000   2.7928460   2.7928460   2.7928460   0.0000000   0.0000000   0.0000000   0.0000000
 AtZNuc=   6.0000000   1.0000000   1.0000000   1.0000000  16.0000000  16.0000000   8.0000000   8.0000000
 Leave Link  101 at Tue Feb 24 08:00:10 2015, MaxMem=  5368709120 cpu:        10.0
 (Enter /usr/software/gaussian/g09.revD01/l103.exe)

 GradGradGradGradGradGradGradGradGradGradGradGradGradGradGradGradGradGrad
 Berny optimization.
 Initialization pass.
                           ----------------------------
                           !    Initial Parameters    !
                           ! (Angstroms and Degrees)  !
 --------------------------                            --------------------------
 ! Name  Definition              Value          Derivative Info.                !
 --------------------------------------------------------------------------------
 ! R1    R(1,2)                  1.4019         estimate D2E/DX2                !
 ! R2    R(1,6)                  1.3981         estimate D2E/DX2                !
 ! R3    R(1,7)                  1.4891         estimate D2E/DX2                !
 ! R4    R(2,3)                  1.3977         estimate D2E/DX2                !
 ! R5    R(2,25)                 1.7775         estimate D2E/DX2                !
 ! R6    R(3,4)                  1.3991         estimate D2E/DX2                !
 ! R7    R(3,9)                  1.091          estimate D2E/DX2                !
 ! R8    R(4,5)                  1.4094         estimate D2E/DX2                !
 ! R9    R(4,10)                 1.0899         estimate D2E/DX2                !
 ! R10   R(5,6)                  1.3984         estimate D2E/DX2                !
 ! R11   R(5,11)                 1.0862         estimate D2E/DX2                !
 ! R12   R(6,12)                 1.0921         estimate D2E/DX2                !
 ! R13   R(7,8)                  1.532          estimate D2E/DX2                !
 ! R14   R(7,28)                 1.2535         estimate D2E/DX2                !
 ! R15   R(8,13)                 1.3668         estimate D2E/DX2                !
 ! R16   R(8,25)                 1.7807         estimate D2E/DX2                !
 ! R17   R(13,14)                1.532          estimate D2E/DX2                !
 ! R18   R(13,26)                1.7807         estimate D2E/DX2                !
 ! R19   R(14,15)                1.4891         estimate D2E/DX2                !
 ! R20   R(14,27)                1.2535         estimate D2E/DX2                !
 ! R21   R(15,16)                1.4019         estimate D2E/DX2                !
 ! R22   R(15,17)                1.3981         estimate D2E/DX2                !
 ! R23   R(16,18)                1.3977         estimate D2E/DX2                !
 ! R24   R(16,26)                1.7775         estimate D2E/DX2                !
 ! R25   R(17,19)                1.3984         estimate D2E/DX2                !
 ! R26   R(17,20)                1.0921         estimate D2E/DX2                !
 ! R27   R(18,21)                1.3991         estimate D2E/DX2                !
 ! R28   R(18,22)                1.091          estimate D2E/DX2                !
 ! R29   R(19,21)                1.4094         estimate D2E/DX2                !
 ! R30   R(19,23)                1.0862         estimate D2E/DX2                !
 ! R31   R(21,24)                1.0899         estimate D2E/DX2                !
 ! A1    A(2,1,6)              120.3323         estimate D2E/DX2                !
 ! A2    A(2,1,7)              114.7104         estimate D2E/DX2                !
 ! A3    A(6,1,7)              124.9299         estimate D2E/DX2                !
 ! A4    A(1,2,3)              121.5128         estimate D2E/DX2                !
 ! A5    A(1,2,25)             112.8206         estimate D2E/DX2                !
 ! A6    A(3,2,25)             125.6666         estimate D2E/DX2                !
 ! A7    A(2,3,4)              117.8423         estimate D2E/DX2                !
 ! A8    A(2,3,9)              121.4943         estimate D2E/DX2                !
 ! A9    A(4,3,9)              120.661          estimate D2E/DX2                !
 ! A10   A(3,4,5)              121.1518         estimate D2E/DX2                !
 ! A11   A(3,4,10)             118.9705         estimate D2E/DX2                !
 ! A12   A(5,4,10)             119.8764         estimate D2E/DX2                !
 ! A13   A(4,5,6)              120.2919         estimate D2E/DX2                !
 ! A14   A(4,5,11)             119.73           estimate D2E/DX2                !
 ! A15   A(6,5,11)             119.9737         estimate D2E/DX2                !
 ! A16   A(1,6,5)              118.8651         estimate D2E/DX2                !
 ! A17   A(1,6,12)             119.1027         estimate D2E/DX2                !
 ! A18   A(5,6,12)             122.0296         estimate D2E/DX2                !
 ! A19   A(1,7,8)              108.608          estimate D2E/DX2                !
 ! A20   A(1,7,28)             124.5258         estimate D2E/DX2                !
 ! A21   A(8,7,28)             126.6927         estimate D2E/DX2                !
 ! A22   A(7,8,13)             129.6969         estimate D2E/DX2                !
 ! A23   A(7,8,25)             110.7126         estimate D2E/DX2                !
 ! A24   A(13,8,25)            119.5155         estimate D2E/DX2                !
 ! A25   A(8,13,14)            129.6969         estimate D2E/DX2                !
 ! A26   A(8,13,26)            119.5155         estimate D2E/DX2                !
 ! A27   A(14,13,26)           110.7126         estimate D2E/DX2                !
 ! A28   A(13,14,15)           108.608          estimate D2E/DX2                !
 ! A29   A(13,14,27)           126.6927         estimate D2E/DX2                !
 ! A30   A(15,14,27)           124.5258         estimate D2E/DX2                !
 ! A31   A(14,15,16)           114.7104         estimate D2E/DX2                !
 ! A32   A(14,15,17)           124.9299         estimate D2E/DX2                !
 ! A33   A(16,15,17)           120.3323         estimate D2E/DX2                !
 ! A34   A(15,16,18)           121.5128         estimate D2E/DX2                !
 ! A35   A(15,16,26)           112.8206         estimate D2E/DX2                !
 ! A36   A(18,16,26)           125.6666         estimate D2E/DX2                !
 ! A37   A(15,17,19)           118.8651         estimate D2E/DX2                !
 ! A38   A(15,17,20)           119.1027         estimate D2E/DX2                !
 ! A39   A(19,17,20)           122.0296         estimate D2E/DX2                !
 ! A40   A(16,18,21)           117.8423         estimate D2E/DX2                !
 ! A41   A(16,18,22)           121.4943         estimate D2E/DX2                !
 ! A42   A(21,18,22)           120.661          estimate D2E/DX2                !
 ! A43   A(17,19,21)           120.2919         estimate D2E/DX2                !
 ! A44   A(17,19,23)           119.9737         estimate D2E/DX2                !
 ! A45   A(21,19,23)           119.73           estimate D2E/DX2                !
 ! A46   A(18,21,19)           121.1518         estimate D2E/DX2                !
 ! A47   A(18,21,24)           118.9705         estimate D2E/DX2                !
 ! A48   A(19,21,24)           119.8764         estimate D2E/DX2                !
 ! A49   A(2,25,8)              92.6631         estimate D2E/DX2                !
 ! A50   A(13,26,16)            92.6631         estimate D2E/DX2                !
 ! D1    D(6,1,2,3)              0.3574         estimate D2E/DX2                !
 ! D2    D(6,1,2,25)          -179.7304         estimate D2E/DX2                !
 ! D3    D(7,1,2,3)            178.5456         estimate D2E/DX2                !
 ! D4    D(7,1,2,25)            -1.5422         estimate D2E/DX2                !
 ! D5    D(2,1,6,5)             -0.3948         estimate D2E/DX2                !
 ! D6    D(2,1,6,12)           179.0379         estimate D2E/DX2                !
 ! D7    D(7,1,6,5)           -178.3872         estimate D2E/DX2                !
 ! D8    D(7,1,6,12)             1.0455         estimate D2E/DX2                !
 ! D9    D(2,1,7,8)              5.7439         estimate D2E/DX2                !
 ! D10   D(2,1,7,28)          -169.7387         estimate D2E/DX2                !
 ! D11   D(6,1,7,8)           -176.1635         estimate D2E/DX2                !
 ! D12   D(6,1,7,28)             8.3539         estimate D2E/DX2                !
 ! D13   D(1,2,3,4)              0.1488         estimate D2E/DX2                !
 ! D14   D(1,2,3,9)            179.5904         estimate D2E/DX2                !
 ! D15   D(25,2,3,4)          -179.7516         estimate D2E/DX2                !
 ! D16   D(25,2,3,9)            -0.31           estimate D2E/DX2                !
 ! D17   D(1,2,25,8)            -2.5987         estimate D2E/DX2                !
 ! D18   D(3,2,25,8)           177.3092         estimate D2E/DX2                !
 ! D19   D(2,3,4,5)             -0.6143         estimate D2E/DX2                !
 ! D20   D(2,3,4,10)           179.8071         estimate D2E/DX2                !
 ! D21   D(9,3,4,5)            179.9392         estimate D2E/DX2                !
 ! D22   D(9,3,4,10)             0.3606         estimate D2E/DX2                !
 ! D23   D(3,4,5,6)              0.5822         estimate D2E/DX2                !
 ! D24   D(3,4,5,11)           179.8259         estimate D2E/DX2                !
 ! D25   D(10,4,5,6)          -179.8429         estimate D2E/DX2                !
 ! D26   D(10,4,5,11)           -0.5993         estimate D2E/DX2                !
 ! D27   D(4,5,6,1)             -0.065          estimate D2E/DX2                !
 ! D28   D(4,5,6,12)          -179.4802         estimate D2E/DX2                !
 ! D29   D(11,5,6,1)          -179.3067         estimate D2E/DX2                !
 ! D30   D(11,5,6,12)            1.278          estimate D2E/DX2                !
 ! D31   D(1,7,8,13)           175.8167         estimate D2E/DX2                !
 ! D32   D(1,7,8,25)            -7.409          estimate D2E/DX2                !
 ! D33   D(28,7,8,13)           -8.825          estimate D2E/DX2                !
 ! D34   D(28,7,8,25)          167.9493         estimate D2E/DX2                !
 ! D35   D(7,8,13,14)          -14.7563         estimate D2E/DX2                !
 ! D36   D(7,8,13,26)          168.7111         estimate D2E/DX2                !
 ! D37   D(25,8,13,14)         168.7111         estimate D2E/DX2                !
 ! D38   D(25,8,13,26)          -7.8214         estimate D2E/DX2                !
 ! D39   D(7,8,25,2)             5.7974         estimate D2E/DX2                !
 ! D40   D(13,8,25,2)         -177.0544         estimate D2E/DX2                !
 ! D41   D(8,13,14,15)         175.8167         estimate D2E/DX2                !
 ! D42   D(8,13,14,27)          -8.825          estimate D2E/DX2                !
 ! D43   D(26,13,14,15)         -7.409          estimate D2E/DX2                !
 ! D44   D(26,13,14,27)        167.9493         estimate D2E/DX2                !
 ! D45   D(8,13,26,16)        -177.0544         estimate D2E/DX2                !
 ! D46   D(14,13,26,16)          5.7974         estimate D2E/DX2                !
 ! D47   D(13,14,15,16)          5.7439         estimate D2E/DX2                !
 ! D48   D(13,14,15,17)       -176.1635         estimate D2E/DX2                !
 ! D49   D(27,14,15,16)       -169.7387         estimate D2E/DX2                !
 ! D50   D(27,14,15,17)          8.3539         estimate D2E/DX2                !
 ! D51   D(14,15,16,18)        178.5456         estimate D2E/DX2                !
 ! D52   D(14,15,16,26)         -1.5422         estimate D2E/DX2                !
 ! D53   D(17,15,16,18)          0.3574         estimate D2E/DX2                !
 ! D54   D(17,15,16,26)       -179.7304         estimate D2E/DX2                !
 ! D55   D(14,15,17,19)       -178.3872         estimate D2E/DX2                !
 ! D56   D(14,15,17,20)          1.0455         estimate D2E/DX2                !
 ! D57   D(16,15,17,19)         -0.3948         estimate D2E/DX2                !
 ! D58   D(16,15,17,20)        179.0379         estimate D2E/DX2                !
 ! D59   D(15,16,18,21)          0.1488         estimate D2E/DX2                !
 ! D60   D(15,16,18,22)        179.5904         estimate D2E/DX2                !
 ! D61   D(26,16,18,21)       -179.7516         estimate D2E/DX2                !
 ! D62   D(26,16,18,22)         -0.31           estimate D2E/DX2                !
 ! D63   D(15,16,26,13)         -2.5987         estimate D2E/DX2                !
 ! D64   D(18,16,26,13)        177.3092         estimate D2E/DX2                !
 ! D65   D(15,17,19,21)         -0.065          estimate D2E/DX2                !
 ! D66   D(15,17,19,23)       -179.3067         estimate D2E/DX2                !
 ! D67   D(20,17,19,21)       -179.4802         estimate D2E/DX2                !
 ! D68   D(20,17,19,23)          1.278          estimate D2E/DX2                !
 ! D69   D(16,18,21,19)         -0.6143         estimate D2E/DX2                !
 ! D70   D(16,18,21,24)        179.8071         estimate D2E/DX2                !
 ! D71   D(22,18,21,19)        179.9392         estimate D2E/DX2                !
 ! D72   D(22,18,21,24)          0.3606         estimate D2E/DX2                !
 ! D73   D(17,19,21,18)          0.5822         estimate D2E/DX2                !
 ! D74   D(17,19,21,24)       -179.8429         estimate D2E/DX2                !
 ! D75   D(23,19,21,18)        179.8259         estimate D2E/DX2                !
 ! D76   D(23,19,21,24)         -0.5993         estimate D2E/DX2                !
 --------------------------------------------------------------------------------
 Trust Radius=3.00D-01 FncErr=1.00D-07 GrdErr=1.00D-06
 Number of steps in this run=    167 maximum allowed number of steps=    168.
 GradGradGradGradGradGradGradGradGradGradGradGradGradGradGradGradGradGrad

 Leave Link  103 at Tue Feb 24 08:00:10 2015, MaxMem=  5368709120 cpu:         0.2
 (Enter /usr/software/gaussian/g09.revD01/l202.exe)
                          Input orientation:                          
 ---------------------------------------------------------------------
 Center     Atomic      Atomic             Coordinates (Angstroms)
 Number     Number       Type             X           Y           Z
 ---------------------------------------------------------------------
      1          6           0       -0.069940    3.047627    0.616124
      2          6           0        0.050019    3.147217   -0.777062
      3          6           0        0.150000    4.386871   -1.414982
      4          6           0        0.130021    5.535915   -0.616963
      5          6           0        0.000063    5.448642    0.783745
      6          6           0       -0.099915    4.200567    1.406444
      7          6           0       -0.199913    1.656780    1.131878
      8          6           0       -0.019985    0.683092   -0.037142
      9          1           0        0.249969    4.463787   -2.498681
     10          1           0        0.210006    6.512095   -1.095005
     11          1           0       -0.009920    6.355656    1.381369
     12          1           0       -0.209879    4.100219    2.488311
     13          6           0        0.019985   -0.683092   -0.037142
     14          6           0        0.199913   -1.656780    1.131878
     15          6           0        0.069940   -3.047627    0.616124
     16          6           0       -0.050019   -3.147217   -0.777062
     17          6           0        0.099915   -4.200567    1.406444
     18          6           0       -0.150000   -4.386871   -1.414982
     19          6           0       -0.000063   -5.448642    0.783745
     20          1           0        0.209879   -4.100219    2.488311
     21          6           0       -0.130021   -5.535915   -0.616963
     22          1           0       -0.249969   -4.463787   -2.498681
     23          1           0        0.009920   -6.355656    1.381369
     24          1           0       -0.210006   -6.512095   -1.095005
     25         16           0        0.060000    1.563076   -1.583125
     26         16           0       -0.060000   -1.563076   -1.583125
     27          8           0        0.499817   -1.362073    2.312720
     28          8           0       -0.499817    1.362073    2.312720
 ---------------------------------------------------------------------
                    Distance matrix (angstroms):
                    1          2          3          4          5
     1  C    0.000000
     2  C    1.401883   0.000000
     3  C    2.442814   1.397741   0.000000
     4  C    2.784253   2.395394   1.399120   0.000000
     5  C    2.407877   2.781218   2.446270   1.409428   0.000000
     6  C    1.398133   2.428935   2.838593   2.435200   1.398371
     7  C    1.489077   2.434732   3.749978   4.267902   3.813057
     8  C    2.453625   2.573770   3.955416   4.889641   4.835775
     9  H    3.436548   2.176536   1.091015   2.169034   3.436090
    10  H    3.874128   3.383650   2.150015   1.089885   2.169034
    11  H    3.395918   3.867363   3.423634   2.164461   1.086245
    12  H    2.152352   3.411513   3.930315   3.437947   2.183544
    13  C    3.788549   3.901237   5.255461   6.246947   6.186470
    14  C    4.740281   5.171548   6.558560   7.402580   7.116752
    15  C    6.096859   6.349603   7.707371   8.671869   8.498210
    16  C    6.349603   6.295229   7.563692   8.686474   8.736556
    17  C    7.293132   7.665515   9.039195   9.944554   9.669796
    18  C    7.707371   7.563692   8.778869   9.958761  10.079397
    19  C    8.498210   8.736556  10.079397  11.074267  10.897284
    20  H    7.394260   7.950695   9.341840  10.124435   9.702078
    21  C    8.671869   8.686474   9.958761  11.074883  11.074267
    22  H    8.133619   7.809055   8.925723  10.182303  10.444764
    23  H    9.434708   9.745000  11.101400  12.058906  11.819421
    24  H    9.712665   9.668041  10.909604  12.062284  12.109214
    25  S    2.656590   1.777453   2.830228   4.089232   4.550087
    26  S    5.108363   4.780032   5.956026   7.166955   7.400667
    27  O    4.759046   5.484776   6.860648   7.503468   6.998097
    28  O    2.429882   3.610514   4.844319   5.138161   4.391775
                    6          7          8          9         10
     6  C    0.000000
     7  C    2.560515   0.000000
     8  C    3.803020   1.532009   0.000000
     9  H    3.929593   4.611143   4.519481   0.000000
    10  H    3.420009   5.357343   5.928680   2.483439   0.000000
    11  H    2.157113   4.709329   5.847244   4.324523   2.491038
    12  H    1.092061   2.794710   4.253320   5.021328   4.339770
    13  C    5.093961   2.624874   1.366769   5.709854   7.275019
    14  C    5.871439   3.337595   2.624874   7.116516   8.466973
    15  C    7.293132   4.740281   3.788549   8.133619   9.712665
    16  C    7.665515   5.171548   3.901237   7.809055   9.668041
    17  C    8.403510   5.871439   5.093961   9.504922  11.001386
    18  C    9.039195   6.558560   5.255461   8.925723  10.909604
    19  C    9.669796   7.116752   6.186470  10.444764  12.109214
    20  H    8.376721   5.928818   5.413946   9.910292  11.200954
    21  C    9.944554   7.402580   6.246947  10.182303  12.062284
    22  H    9.504922   7.116516   5.709854   8.941561  11.074830
    23  H   10.556824   8.019065   7.180323  11.496641  13.105399
    24  H   11.001386   8.466973   7.275019  11.074830  13.030961
    25  S    3.989919   2.729025   1.780683   3.047697   4.975294
    26  S    6.492973   4.214059   2.727074   6.103884   8.094415
    27  O    5.667802   3.316245   3.158282   7.559937   8.584818
    28  O    3.006378   1.253468   2.492610   5.773421   6.216041
                   11         12         13         14         15
    11  H    0.000000
    12  H    2.520377   0.000000
    13  C    7.180323   5.413946   0.000000
    14  C    8.019065   5.928818   1.532009   0.000000
    15  C    9.434708   7.394260   2.453625   1.489077   0.000000
    16  C    9.745000   7.950695   2.573770   2.434732   1.401883
    17  C   10.556824   8.376721   3.803020   2.560515   1.398133
    18  C   11.101400   9.341840   3.955416   3.749978   2.442814
    19  C   11.819421   9.702078   4.835775   3.813057   2.407877
    20  H   10.516604   8.211174   4.253320   2.794710   2.152352
    21  C   12.058906  10.124435   4.889641   4.267902   2.784253
    22  H   11.496641   9.910292   4.519481   4.611143   3.436548
    23  H   12.711327  10.516604   5.847244   4.709329   3.395918
    24  H   13.105399  11.200954   5.928680   5.357343   3.874128
    25  S    5.635773   4.804843   2.727074   4.214059   5.108363
    26  S    8.455593   6.976530   1.780683   2.729025   2.656590
    27  O    7.790416   5.511001   2.492610   1.253468   2.429882
    28  O    5.103262   2.759047   3.158282   3.316245   4.759046
                   16         17         18         19         20
    16  C    0.000000
    17  C    2.428935   0.000000
    18  C    1.397741   2.838593   0.000000
    19  C    2.781218   1.398371   2.446270   0.000000
    20  H    3.411513   1.092061   3.930315   2.183544   0.000000
    21  C    2.395394   2.435200   1.399120   1.409428   3.437947
    22  H    2.176536   3.929593   1.091015   3.436090   5.021328
    23  H    3.867363   2.157113   3.423634   1.086245   2.520377
    24  H    3.383650   3.420009   2.150015   2.169034   4.339770
    25  S    4.780032   6.492973   5.956026   7.400667   6.976530
    26  S    1.777453   3.989919   2.830228   4.550087   4.804843
    27  O    3.610514   3.006378   4.844319   4.391775   2.759047
    28  O    5.484776   5.667802   6.860648   6.998097   5.511001
                   21         22         23         24         25
    21  C    0.000000
    22  H    2.169034   0.000000
    23  H    2.164461   4.324523   0.000000
    24  H    1.089885   2.483439   2.491038   0.000000
    25  S    7.166955   6.103884   8.455593   8.094415   0.000000
    26  S    4.089232   3.047697   5.635773   4.975294   3.128454
    27  O    5.138161   5.773421   5.103262   6.216041   4.891579
    28  O    7.503468   7.559937   7.790416   8.584818   3.940990
                   26         27         28
    26  S    0.000000
    27  O    3.940990   0.000000
    28  O    4.891579   2.901765   0.000000
 Stoichiometry    C16H8O2S2
 Framework group  C2[X(C16H8O2S2)]
 Deg. of freedom    40
 Full point group                 C2      NOp   2
 Largest Abelian subgroup         C2      NOp   2
 Largest concise Abelian subgroup C2      NOp   2
                         Standard orientation:                         
 ---------------------------------------------------------------------
 Center     Atomic      Atomic             Coordinates (Angstroms)
 Number     Number       Type             X           Y           Z
 ---------------------------------------------------------------------
      1          6           0        0.015773    3.048389    0.616124
      2          6           0        0.138484    3.144567   -0.777062
      3          6           0        0.273279    4.380920   -1.414982
      4          6           0        0.285613    5.530071   -0.616963
      5          6           0        0.153253    5.446486    0.783745
      6          6           0        0.018225    4.201716    1.406444
      7          6           0       -0.153253    1.661746    1.131878
      8          6           0       -0.000772    0.683384   -0.037142
      9          1           0        0.375371    4.454994   -2.498681
     10          1           0        0.393012    6.503616   -1.095005
     11          1           0        0.168775    6.353422    1.381369
     12          1           0       -0.094517    4.104499    2.488311
     13          6           0        0.000772   -0.683384   -0.037142
     14          6           0        0.153253   -1.661746    1.131878
     15          6           0       -0.015773   -3.048389    0.616124
     16          6           0       -0.138484   -3.144567   -0.777062
     17          6           0       -0.018225   -4.201716    1.406444
     18          6           0       -0.273279   -4.380920   -1.414982
     19          6           0       -0.153253   -5.446486    0.783745
     20          1           0        0.094517   -4.104499    2.488311
     21          6           0       -0.285613   -5.530071   -0.616963
     22          1           0       -0.375371   -4.454994   -2.498681
     23          1           0       -0.168775   -6.353422    1.381369
     24          1           0       -0.393012   -6.503616   -1.095005
     25         16           0        0.103923    1.560771   -1.583125
     26         16           0       -0.103923   -1.560771   -1.583125
     27          8           0        0.461324   -1.375587    2.312720
     28          8           0       -0.461324    1.375587    2.312720
 ---------------------------------------------------------------------
 Rotational constants (GHZ):      0.9233427      0.1513811      0.1307890
 Leave Link  202 at Tue Feb 24 08:00:10 2015, MaxMem=  5368709120 cpu:         0.3
 (Enter /usr/software/gaussian/g09.revD01/l301.exe)
 Standard basis: 6-31+G(d) (6D, 7F)
 Ernie: Thresh=  0.10000D-02 Tol=  0.10000D-05 Strict=F.
 There are   202 symmetry adapted cartesian basis functions of A   symmetry.
 There are   202 symmetry adapted cartesian basis functions of B   symmetry.
 There are   202 symmetry adapted basis functions of A   symmetry.
 There are   202 symmetry adapted basis functions of B   symmetry.
   404 basis functions,   720 primitive gaussians,   404 cartesian basis functions
    76 alpha electrons       76 beta electrons
       nuclear repulsion energy      1621.3000182154 Hartrees.
 IExCor=  402 DFT=T Ex+Corr=B3LYP ExCW=0 ScaHFX=  0.200000
 ScaDFX=  0.800000  0.720000  1.000000  0.810000 ScalE2=  1.000000  1.000000
 IRadAn=      5 IRanWt=     -1 IRanGd=            0 ICorTp=0 IEmpDi=  4
 NAtoms=   28 NActive=   28 NUniq=   14 SFac= 4.00D+00 NAtFMM=   60 NAOKFM=F Big=F
 Integral buffers will be    131072 words long.
 Raffenetti 2 integral format.
 Two-electron integral symmetry is turned on.
 Leave Link  301 at Tue Feb 24 08:00:10 2015, MaxMem=  5368709120 cpu:         0.8
 (Enter /usr/software/gaussian/g09.revD01/l302.exe)
 NPDir=0 NMtPBC=     1 NCelOv=     1 NCel=       1 NClECP=     1 NCelD=      1
         NCelK=      1 NCelE2=     1 NClLst=     1 CellRange=     0.0.
 One-electron integrals computed using PRISM.
 One-electron integral symmetry used in STVInt
 NBasis=   404 RedAO= T EigKep=  1.86D-06  NBF=   202   202
 NBsUse=   399 1.00D-06 EigRej=  7.37D-07 NBFU=   200   199
 Precomputing XC quadrature grid using
 IXCGrd= 4 IRadAn=           5 IRanWt=          -1 IRanGd=           0 AccXCQ= 0.00D+00.
 Generated NRdTot=       0 NPtTot=           0 NUsed=           0 NTot=          32
 NSgBfM=   397   397   397   397   397 MxSgAt=    28 MxSgA2=    28.
 Leave Link  302 at Tue Feb 24 08:00:11 2015, MaxMem=  5368709120 cpu:        12.1
 (Enter /usr/software/gaussian/g09.revD01/l303.exe)
 DipDrv:  MaxL=1.
 Leave Link  303 at Tue Feb 24 08:00:11 2015, MaxMem=  5368709120 cpu:         1.1
 (Enter /usr/software/gaussian/g09.revD01/l401.exe)
 Initial guess from the checkpoint file:  "Ex_Cis.chk"
 B after Tr=     0.000000    0.000000    0.000000
         Rot=    0.999894    0.000000    0.000000    0.014593 Ang=   1.67 deg.
 Guess basis will be translated and rotated to current coordinates.
 JPrj=2 DoOrth=T DoCkMO=T.
 Initial guess orbital symmetries:
       Occupied  (B) (A) (B) (A) (B) (A) (A) (B) (B) (A) (B) (A)
                 (B) (A) (A) (B) (B) (A) (A) (B) (B) (A) (B) (A)
                 (B) (A) (A) (B) (A) (B) (A) (B) (A) (B) (A) (A)
                 (B) (B) (A) (B) (A) (B) (A) (B) (A) (B) (A) (A)
                 (A) (B) (B) (B) (A) (B) (B) (A) (A) (B) (A) (A)
                 (B) (A) (B) (B) (A) (A) (B) (B) (A) (B) (A) (B)
                 (A) (B) (A) (B)
       Virtual   (A) (B) (A) (B) (A) (A) (B) (A) (A) (B) (A) (A)
                 (B) (B) (B) (A) (B) (A) (B) (A) (A) (A) (B) (B)
                 (B) (A) (A) (A) (B) (B) (A) (B) (A) (B) (B) (B)
                 (A) (B) (A) (B) (B) (A) (A) (A) (A) (A) (B) (A)
                 (B) (A) (B) (A) (A) (B) (B) (B) (A) (B) (B) (A)
                 (A) (B) (B) (A) (B) (A) (B) (A) (B) (B) (A) (A)
                 (A) (A) (B) (A) (B) (B) (A) (A) (A) (B) (A) (B)
                 (B) (A) (B) (B) (A) (A) (B) (A) (B) (A) (B) (A)
                 (A) (B) (A) (B) (A) (B) (B) (A) (A) (B) (B) (B)
                 (A) (B) (A) (A) (A) (B) (A) (B) (A) (B) (B) (B)
                 (A) (B) (B) (B) (A) (A) (A) (B) (A) (A) (A) (B)
                 (B) (B) (A) (B) (A) (B) (A) (B) (A) (A) (B) (B)
                 (B) (A) (A) (A) (B) (A) (B) (B) (A) (A) (B) (B)
                 (A) (A) (B) (B) (A) (A) (B) (B) (A) (A) (B) (A)
                 (B) (A) (A) (B) (B) (A) (B) (A) (A) (B) (B) (A)
                 (A) (A) (B) (B) (A) (B) (B) (A) (A) (B) (B) (A)
                 (B) (B) (A) (A) (B) (A) (A) (A) (B) (B) (B) (A)
                 (B) (A) (B) (A) (A) (B) (A) (B) (B) (A) (B) (A)
                 (A) (B) (B) (A) (B) (B) (B) (A) (B) (A) (A) (B)
                 (B) (B) (A) (A) (B) (A) (A) (B) (B) (A) (B) (A)
                 (A) (A) (B) (A) (B) (B) (A) (B) (A) (A) (B) (A)
                 (A) (B) (B) (A) (B) (A) (A) (B) (B) (A) (B) (A)
                 (B) (A) (B) (A) (B) (B) (A) (A) (A) (B) (B) (B)
                 (A) (A) (B) (A) (B) (B) (A) (A) (B) (A) (B) (A)
                 (B) (B) (A) (A) (B) (A) (B) (B) (A) (B) (A) (B)
                 (A) (B) (A) (B) (A) (A) (B) (A) (B) (B) (A) (B)
                 (A) (A) (B) (A) (B) (B) (A) (B) (A) (B) (B)
 The electronic state of the initial guess is 1-A.
 Leave Link  401 at Tue Feb 24 08:00:13 2015, MaxMem=  5368709120 cpu:        19.4
 (Enter /usr/software/gaussian/g09.revD01/l502.exe)
 Closed shell SCF:
 Using DIIS extrapolation, IDIIS=  1040.
 Integral symmetry usage will be decided dynamically.
 Keep R1 ints in memory in symmetry-blocked form, NReq=5020432512.
 IVT=      516574 IEndB=      516574 NGot=  5368709120 MDV=  3694755968
 LenX=  3694755968 LenY=  3694592311
 Requested convergence on RMS density matrix=1.00D-08 within 128 cycles.
 Requested convergence on MAX density matrix=1.00D-06.
 Requested convergence on             energy=1.00D-06.
 No special actions if energy rises.
 FoFCou: FMM=F IPFlag=           0 FMFlag=           0 FMFlg1=           0
         NFxFlg=           0 DoJE=F BraDBF=F KetDBF=F FulRan=T
         wScrn=  0.000000 ICntrl=     600 IOpCl=  0 I1Cent=           0 NGrid=           0
         NMat0=    1 NMatS0=  81810 NMatT0=    0 NMatD0=    1 NMtDS0=    0 NMtDT0=    0
 Petite list used in FoFCou.

 Cycle   1  Pass 1  IDiag  1:
 E= -1561.18846905848    
 DIIS: error= 2.05D-02 at cycle   1 NSaved=   1.
 NSaved= 1 IEnMin= 1 EnMin= -1561.18846905848     IErMin= 1 ErrMin= 2.05D-02
 ErrMax= 2.05D-02  0.00D+00 EMaxC= 1.00D-01 BMatC= 1.51D-01 BMatP= 1.51D-01
 IDIUse=3 WtCom= 7.95D-01 WtEn= 2.05D-01
 Coeff-Com:  0.100D+01
 Coeff-En:   0.100D+01
 Coeff:      0.100D+01
 Gap=     0.358 Goal=   None    Shift=    0.000
 GapD=    0.358 DampG=1.000 DampE=0.500 DampFc=0.5000 IDamp=-1.
 Damping current iteration by 5.00D-01
 RMSDP=2.07D-02 MaxDP=1.95D+00              OVMax= 9.88D-02

 Cycle   2  Pass 1  IDiag  1:
 E= -1561.27072496392     Delta-E=       -0.082255905434 Rises=F Damp=T
 DIIS: error= 1.04D-02 at cycle   2 NSaved=   2.
 NSaved= 2 IEnMin= 2 EnMin= -1561.27072496392     IErMin= 2 ErrMin= 1.04D-02
 ErrMax= 1.04D-02  0.00D+00 EMaxC= 1.00D-01 BMatC= 4.08D-02 BMatP= 1.51D-01
 IDIUse=3 WtCom= 8.96D-01 WtEn= 1.04D-01
 Coeff-Com: -0.103D+01 0.203D+01
 Coeff-En:   0.000D+00 0.100D+01
 Coeff:     -0.922D+00 0.192D+01
 Gap=     0.102 Goal=   None    Shift=    0.000
 RMSDP=1.08D-02 MaxDP=1.06D+00 DE=-8.23D-02 OVMax= 2.77D-02

 Cycle   3  Pass 1  IDiag  1:
 E= -1561.35543981508     Delta-E=       -0.084714851159 Rises=F Damp=F
 DIIS: error= 3.69D-03 at cycle   3 NSaved=   3.
 NSaved= 3 IEnMin= 3 EnMin= -1561.35543981508     IErMin= 3 ErrMin= 3.69D-03
 ErrMax= 3.69D-03  0.00D+00 EMaxC= 1.00D-01 BMatC= 6.93D-03 BMatP= 4.08D-02
 IDIUse=3 WtCom= 9.63D-01 WtEn= 3.69D-02
 Coeff-Com: -0.676D+00 0.131D+01 0.370D+00
 Coeff-En:   0.000D+00 0.000D+00 0.100D+01
 Coeff:     -0.651D+00 0.126D+01 0.393D+00
 Gap=     0.105 Goal=   None    Shift=    0.000
 RMSDP=1.04D-03 MaxDP=8.89D-02 DE=-8.47D-02 OVMax= 2.80D-02

 Cycle   4  Pass 1  IDiag  1:
 E= -1561.36027391088     Delta-E=       -0.004834095804 Rises=F Damp=F
 DIIS: error= 1.50D-03 at cycle   4 NSaved=   4.
 NSaved= 4 IEnMin= 4 EnMin= -1561.36027391088     IErMin= 4 ErrMin= 1.50D-03
 ErrMax= 1.50D-03  0.00D+00 EMaxC= 1.00D-01 BMatC= 1.09D-03 BMatP= 6.93D-03
 IDIUse=3 WtCom= 9.85D-01 WtEn= 1.50D-02
 Coeff-Com: -0.129D+00 0.244D+00 0.285D+00 0.599D+00
 Coeff-En:   0.000D+00 0.000D+00 0.198D+00 0.802D+00
 Coeff:     -0.127D+00 0.240D+00 0.284D+00 0.602D+00
 Gap=     0.104 Goal=   None    Shift=    0.000
 RMSDP=4.13D-04 MaxDP=3.44D-02 DE=-4.83D-03 OVMax= 8.79D-03

 Cycle   5  Pass 1  IDiag  1:
 E= -1561.36119105174     Delta-E=       -0.000917140859 Rises=F Damp=F
 DIIS: error= 1.66D-04 at cycle   5 NSaved=   5.
 NSaved= 5 IEnMin= 5 EnMin= -1561.36119105174     IErMin= 5 ErrMin= 1.66D-04
 ErrMax= 1.66D-04  0.00D+00 EMaxC= 1.00D-01 BMatC= 1.74D-05 BMatP= 1.09D-03
 IDIUse=3 WtCom= 9.98D-01 WtEn= 1.66D-03
 Coeff-Com: -0.133D-01 0.233D-01 0.977D-01 0.258D+00 0.634D+00
 Coeff-En:   0.000D+00 0.000D+00 0.000D+00 0.000D+00 0.100D+01
 Coeff:     -0.133D-01 0.232D-01 0.975D-01 0.258D+00 0.635D+00
 Gap=     0.104 Goal=   None    Shift=    0.000
 RMSDP=1.10D-04 MaxDP=4.57D-03 DE=-9.17D-04 OVMax= 1.74D-03

 Cycle   6  Pass 1  IDiag  1:
 E= -1561.36120169272     Delta-E=       -0.000010640978 Rises=F Damp=F
 DIIS: error= 1.40D-04 at cycle   6 NSaved=   6.
 NSaved= 6 IEnMin= 6 EnMin= -1561.36120169272     IErMin= 6 ErrMin= 1.40D-04
 ErrMax= 1.40D-04  0.00D+00 EMaxC= 1.00D-01 BMatC= 7.72D-06 BMatP= 1.74D-05
 IDIUse=3 WtCom= 9.99D-01 WtEn= 1.40D-03
 Coeff-Com:  0.178D-01-0.352D-01 0.148D-01 0.731D-01 0.437D+00 0.493D+00
 Coeff-En:   0.000D+00 0.000D+00 0.000D+00 0.000D+00 0.317D+00 0.683D+00
 Coeff:      0.177D-01-0.351D-01 0.148D-01 0.730D-01 0.437D+00 0.493D+00
 Gap=     0.104 Goal=   None    Shift=    0.000
 RMSDP=5.42D-05 MaxDP=1.90D-03 DE=-1.06D-05 OVMax= 8.29D-04

 Cycle   7  Pass 1  IDiag  1:
 E= -1561.36120998814     Delta-E=       -0.000008295424 Rises=F Damp=F
 DIIS: error= 3.16D-05 at cycle   7 NSaved=   7.
 NSaved= 7 IEnMin= 7 EnMin= -1561.36120998814     IErMin= 7 ErrMin= 3.16D-05
 ErrMax= 3.16D-05  0.00D+00 EMaxC= 1.00D-01 BMatC= 3.37D-07 BMatP= 7.72D-06
 IDIUse=1 WtCom= 1.00D+00 WtEn= 0.00D+00
 Coeff-Com:  0.107D-01-0.211D-01 0.209D-02 0.258D-01 0.202D+00 0.273D+00
 Coeff-Com:  0.507D+00
 Coeff:      0.107D-01-0.211D-01 0.209D-02 0.258D-01 0.202D+00 0.273D+00
 Coeff:      0.507D+00
 Gap=     0.104 Goal=   None    Shift=    0.000
 RMSDP=1.47D-05 MaxDP=6.78D-04 DE=-8.30D-06 OVMax= 2.31D-04

 Cycle   8  Pass 1  IDiag  1:
 E= -1561.36121036482     Delta-E=       -0.000000376675 Rises=F Damp=F
 DIIS: error= 7.38D-06 at cycle   8 NSaved=   8.
 NSaved= 8 IEnMin= 8 EnMin= -1561.36121036482     IErMin= 8 ErrMin= 7.38D-06
 ErrMax= 7.38D-06  0.00D+00 EMaxC= 1.00D-01 BMatC= 4.06D-08 BMatP= 3.37D-07
 IDIUse=1 WtCom= 1.00D+00 WtEn= 0.00D+00
 Coeff-Com:  0.284D-02-0.554D-02-0.105D-02 0.261D-02 0.360D-01 0.621D-01
 Coeff-Com:  0.281D+00 0.623D+00
 Coeff:      0.284D-02-0.554D-02-0.105D-02 0.261D-02 0.360D-01 0.621D-01
 Coeff:      0.281D+00 0.623D+00
 Gap=     0.104 Goal=   None    Shift=    0.000
 RMSDP=6.22D-06 MaxDP=3.66D-04 DE=-3.77D-07 OVMax= 7.38D-05

 Cycle   9  Pass 1  IDiag  1:
 E= -1561.36121041201     Delta-E=       -0.000000047197 Rises=F Damp=F
 DIIS: error= 2.84D-06 at cycle   9 NSaved=   9.
 NSaved= 9 IEnMin= 9 EnMin= -1561.36121041201     IErMin= 9 ErrMin= 2.84D-06
 ErrMax= 2.84D-06  0.00D+00 EMaxC= 1.00D-01 BMatC= 3.55D-09 BMatP= 4.06D-08
 IDIUse=1 WtCom= 1.00D+00 WtEn= 0.00D+00
 Coeff-Com:  0.208D-03-0.389D-03-0.646D-03-0.145D-02-0.393D-02 0.826D-03
 Coeff-Com:  0.842D-01 0.299D+00 0.622D+00
 Coeff:      0.208D-03-0.389D-03-0.646D-03-0.145D-02-0.393D-02 0.826D-03
 Coeff:      0.842D-01 0.299D+00 0.622D+00
 Gap=     0.104 Goal=   None    Shift=    0.000
 RMSDP=1.62D-06 MaxDP=6.70D-05 DE=-4.72D-08 OVMax= 2.45D-05

 Cycle  10  Pass 1  IDiag  1:
 E= -1561.36121041522     Delta-E=       -0.000000003207 Rises=F Damp=F
 DIIS: error= 1.64D-06 at cycle  10 NSaved=  10.
 NSaved=10 IEnMin=10 EnMin= -1561.36121041522     IErMin=10 ErrMin= 1.64D-06
 ErrMax= 1.64D-06  0.00D+00 EMaxC= 1.00D-01 BMatC= 7.32D-10 BMatP= 3.55D-09
 IDIUse=1 WtCom= 1.00D+00 WtEn= 0.00D+00
 Coeff-Com: -0.179D-03 0.359D-03-0.215D-03-0.105D-02-0.601D-02-0.627D-02
 Coeff-Com:  0.176D-01 0.104D+00 0.374D+00 0.518D+00
 Coeff:     -0.179D-03 0.359D-03-0.215D-03-0.105D-02-0.601D-02-0.627D-02
 Coeff:      0.176D-01 0.104D+00 0.374D+00 0.518D+00
 Gap=     0.104 Goal=   None    Shift=    0.000
 RMSDP=7.61D-07 MaxDP=5.44D-05 DE=-3.21D-09 OVMax= 1.25D-05

 Cycle  11  Pass 1  IDiag  1:
 E= -1561.36121041604     Delta-E=       -0.000000000823 Rises=F Damp=F
 DIIS: error= 4.52D-07 at cycle  11 NSaved=  11.
 NSaved=11 IEnMin=11 EnMin= -1561.36121041604     IErMin=11 ErrMin= 4.52D-07
 ErrMax= 4.52D-07  0.00D+00 EMaxC= 1.00D-01 BMatC= 5.63D-11 BMatP= 7.32D-10
 IDIUse=1 WtCom= 1.00D+00 WtEn= 0.00D+00
 Coeff-Com: -0.129D-03 0.257D-03-0.693D-04-0.519D-03-0.330D-02-0.388D-02
 Coeff-Com:  0.268D-02 0.334D-01 0.161D+00 0.291D+00 0.520D+00
 Coeff:     -0.129D-03 0.257D-03-0.693D-04-0.519D-03-0.330D-02-0.388D-02
 Coeff:      0.268D-02 0.334D-01 0.161D+00 0.291D+00 0.520D+00
 Gap=     0.104 Goal=   None    Shift=    0.000
 RMSDP=2.24D-07 MaxDP=1.46D-05 DE=-8.23D-10 OVMax= 3.13D-06

 Cycle  12  Pass 1  IDiag  1:
 E= -1561.36121041610     Delta-E=       -0.000000000057 Rises=F Damp=F
 DIIS: error= 9.70D-08 at cycle  12 NSaved=  12.
 NSaved=12 IEnMin=12 EnMin= -1561.36121041610     IErMin=12 ErrMin= 9.70D-08
 ErrMax= 9.70D-08  0.00D+00 EMaxC= 1.00D-01 BMatC= 4.91D-12 BMatP= 5.63D-11
 IDIUse=1 WtCom= 1.00D+00 WtEn= 0.00D+00
 Coeff-Com: -0.508D-04 0.101D-03-0.118D-04-0.164D-03-0.113D-02-0.143D-02
 Coeff-Com: -0.680D-03 0.610D-02 0.461D-01 0.985D-01 0.275D+00 0.577D+00
 Coeff:     -0.508D-04 0.101D-03-0.118D-04-0.164D-03-0.113D-02-0.143D-02
 Coeff:     -0.680D-03 0.610D-02 0.461D-01 0.985D-01 0.275D+00 0.577D+00
 Gap=     0.104 Goal=   None    Shift=    0.000
 RMSDP=5.16D-08 MaxDP=2.07D-06 DE=-5.73D-11 OVMax= 6.84D-07

 Cycle  13  Pass 1  IDiag  1:
 E= -1561.36121041603     Delta-E=        0.000000000073 Rises=F Damp=F
 DIIS: error= 3.04D-08 at cycle  13 NSaved=  13.
 NSaved=13 IEnMin=12 EnMin= -1561.36121041610     IErMin=13 ErrMin= 3.04D-08
 ErrMax= 3.04D-08  0.00D+00 EMaxC= 1.00D-01 BMatC= 5.01D-13 BMatP= 4.91D-12
 IDIUse=1 WtCom= 1.00D+00 WtEn= 0.00D+00
 Coeff-Com: -0.286D-05 0.552D-05 0.472D-05 0.544D-05 0.263D-05-0.406D-04
 Coeff-Com: -0.692D-03-0.223D-02-0.337D-02 0.814D-03 0.468D-01 0.270D+00
 Coeff-Com:  0.688D+00
 Coeff:     -0.286D-05 0.552D-05 0.472D-05 0.544D-05 0.263D-05-0.406D-04
 Coeff:     -0.692D-03-0.223D-02-0.337D-02 0.814D-03 0.468D-01 0.270D+00
 Coeff:      0.688D+00
 Gap=     0.104 Goal=   None    Shift=    0.000
 RMSDP=1.77D-08 MaxDP=5.04D-07 DE= 7.32D-11 OVMax= 4.59D-07

 Cycle  14  Pass 1  IDiag  1:
 E= -1561.36121041616     Delta-E=       -0.000000000134 Rises=F Damp=F
 DIIS: error= 1.31D-08 at cycle  14 NSaved=  14.
 NSaved=14 IEnMin=14 EnMin= -1561.36121041616     IErMin=14 ErrMin= 1.31D-08
 ErrMax= 1.31D-08  0.00D+00 EMaxC= 1.00D-01 BMatC= 1.29D-13 BMatP= 5.01D-13
 IDIUse=1 WtCom= 1.00D+00 WtEn= 0.00D+00
 Coeff-Com:  0.409D-05-0.819D-05 0.369D-05 0.217D-04 0.130D-03 0.138D-03
 Coeff-Com: -0.308D-03-0.192D-02-0.722D-02-0.108D-01-0.547D-02 0.897D-01
 Coeff-Com:  0.410D+00 0.526D+00
 Coeff:      0.409D-05-0.819D-05 0.369D-05 0.217D-04 0.130D-03 0.138D-03
 Coeff:     -0.308D-03-0.192D-02-0.722D-02-0.108D-01-0.547D-02 0.897D-01
 Coeff:      0.410D+00 0.526D+00
 Gap=     0.104 Goal=   None    Shift=    0.000
 RMSDP=8.73D-09 MaxDP=4.12D-07 DE=-1.34D-10 OVMax= 1.61D-07

 SCF Done:  E(RB3LYP) =  -1561.36121042     A.U. after   14 cycles
            NFock= 14  Conv=0.87D-08     -V/T= 2.0067
 KE= 1.550936963355D+03 PE=-6.910373925488D+03 EE= 2.176775733501D+03
 Leave Link  502 at Tue Feb 24 08:03:34 2015, MaxMem=  5368709120 cpu:      1776.6
 (Enter /usr/software/gaussian/g09.revD01/l601.exe)
 Copying SCF densities to generalized density rwf, IOpCl= 0 IROHF=0.

 **********************************************************************

            Population analysis using the SCF density.

 **********************************************************************

 Orbital symmetries:
       Occupied  (B) (A) (B) (A) (B) (A) (A) (B) (B) (A) (B) (A)
                 (B) (A) (B) (A) (B) (A) (A) (B) (B) (A) (B) (A)
                 (B) (A) (A) (B) (A) (B) (A) (B) (A) (B) (A) (B)
                 (A) (B) (A) (B) (A) (B) (A) (B) (A) (B) (A) (A)
                 (B) (A) (B) (B) (A) (B) (B) (A) (B) (A) (A) (A)
                 (B) (A) (B) (B) (A) (A) (B) (B) (A) (B) (A) (B)
                 (A) (B) (A) (B)
       Virtual   (A) (B) (A) (B) (A) (A) (B) (A) (A) (B) (A) (B)
                 (A) (B) (B) (A) (B) (A) (B) (A) (A) (B) (A) (B)
                 (B) (A) (A) (A) (B) (B) (A) (B) (A) (B) (B) (B)
                 (A) (A) (B) (B) (B) (A) (A) (A) (A) (B) (A) (A)
                 (B) (A) (A) (B) (B) (A) (B) (B) (A) (B) (B) (A)
                 (B) (B) (A) (B) (A) (B) (A) (A) (B) (A) (B) (A)
                 (A) (B) (A) (B) (A) (B) (B) (A) (A) (A) (B) (B)
                 (A) (B) (B) (A) (B) (A) (B) (A) (A) (A) (B) (B)
                 (A) (B) (A) (B) (A) (B) (A) (B) (B) (A) (A) (B)
                 (A) (B) (A) (B) (B) (A) (A) (A) (B) (B) (A) (B)
                 (B) (A) (B) (A) (B) (A) (A) (B) (B) (A) (A) (A)
                 (B) (B) (B) (A) (A) (B) (A) (B) (B) (A) (A) (B)
                 (B) (B) (A) (A) (B) (A) (A) (B) (B) (A) (B) (A)
                 (B) (A) (A) (B) (B) (A) (B) (A) (B) (A) (B) (A)
                 (B) (A) (A) (A) (B) (B) (A) (B) (B) (A) (A) (B)
                 (A) (B) (A) (B) (A) (B) (B) (A) (A) (B) (A) (B)
                 (A) (B) (B) (A) (A) (B) (A) (B) (A) (B) (B) (A)
                 (A) (B) (A) (B) (B) (A) (A) (B) (A) (B) (A) (B)
                 (B) (A) (B) (A) (A) (B) (B) (B) (A) (B) (A) (A)
                 (B) (B) (B) (A) (A) (A) (B) (B) (A) (B) (A) (B)
                 (A) (A) (A) (B) (B) (A) (B) (A) (B) (A) (B) (A)
                 (A) (B) (A) (B) (B) (A) (A) (B) (A) (B) (A) (A)
                 (B) (B) (A) (B) (A) (B) (B) (A) (A) (B) (A) (B)
                 (B) (A) (A) (B) (A) (B) (A) (B) (A) (B) (A) (B)
                 (A) (B) (B) (A) (A) (B) (B) (A) (B) (A) (B) (A)
                 (B) (A) (B) (A) (B) (A) (A) (B) (B) (A) (B) (A)
                 (B) (A) (A) (B) (A) (B) (B) (A) (B) (A) (B)
 The electronic state is 1-A.
 Alpha  occ. eigenvalues --  -88.93107 -88.93106 -19.15920 -19.15920 -10.30513
 Alpha  occ. eigenvalues --  -10.30513 -10.26916 -10.26847 -10.25646 -10.25646
 Alpha  occ. eigenvalues --  -10.22766 -10.22766 -10.22676 -10.22676 -10.22363
 Alpha  occ. eigenvalues --  -10.22363 -10.22307 -10.22307 -10.21815 -10.21815
 Alpha  occ. eigenvalues --   -7.99027  -7.99027  -5.95505  -5.95505  -5.95156
 Alpha  occ. eigenvalues --   -5.95154  -5.94596  -5.94595  -1.03870  -1.03353
 Alpha  occ. eigenvalues --   -0.91251  -0.90308  -0.86533  -0.83576  -0.78595
 Alpha  occ. eigenvalues --   -0.78524  -0.78390  -0.73772  -0.72151  -0.69546
 Alpha  occ. eigenvalues --   -0.66656  -0.62157  -0.62024  -0.59792  -0.59436
 Alpha  occ. eigenvalues --   -0.55214  -0.51586  -0.50781  -0.49831  -0.49753
 Alpha  occ. eigenvalues --   -0.47702  -0.46288  -0.46215  -0.45542  -0.44519
 Alpha  occ. eigenvalues --   -0.44470  -0.43134  -0.42995  -0.42886  -0.40957
 Alpha  occ. eigenvalues --   -0.38806  -0.38698  -0.38474  -0.38181  -0.37665
 Alpha  occ. eigenvalues --   -0.36958  -0.35851  -0.35350  -0.32955  -0.29263
 Alpha  occ. eigenvalues --   -0.28422  -0.28108  -0.28100  -0.25727  -0.25029
 Alpha  occ. eigenvalues --   -0.22953
 Alpha virt. eigenvalues --   -0.12527  -0.06803  -0.03954  -0.03681  -0.03522
 Alpha virt. eigenvalues --   -0.02003  -0.00427  -0.00077   0.00857   0.01337
 Alpha virt. eigenvalues --    0.01895   0.01976   0.02410   0.02877   0.03546
 Alpha virt. eigenvalues --    0.04272   0.04432   0.04667   0.05076   0.05690
 Alpha virt. eigenvalues --    0.06299   0.06518   0.06642   0.06748   0.07671
 Alpha virt. eigenvalues --    0.08048   0.08266   0.08707   0.09158   0.09535
 Alpha virt. eigenvalues --    0.10071   0.10524   0.10754   0.11017   0.11976
 Alpha virt. eigenvalues --    0.12571   0.12700   0.12845   0.13062   0.13324
 Alpha virt. eigenvalues --    0.13910   0.14439   0.14820   0.15080   0.15735
 Alpha virt. eigenvalues --    0.16051   0.16150   0.16509   0.16679   0.16718
 Alpha virt. eigenvalues --    0.17253   0.17340   0.17964   0.18121   0.18275
 Alpha virt. eigenvalues --    0.18675   0.19174   0.19353   0.20089   0.20231
 Alpha virt. eigenvalues --    0.20498   0.20835   0.20913   0.21356   0.21446
 Alpha virt. eigenvalues --    0.22107   0.22472   0.22515   0.23146   0.23503
 Alpha virt. eigenvalues --    0.23554   0.24281   0.24341   0.24888   0.25132
 Alpha virt. eigenvalues --    0.25741   0.25840   0.26338   0.26418   0.26955
 Alpha virt. eigenvalues --    0.27661   0.28581   0.28632   0.28886   0.29049
 Alpha virt. eigenvalues --    0.29543   0.30561   0.30623   0.31420   0.31426
 Alpha virt. eigenvalues --    0.33821   0.33829   0.33999   0.34595   0.34689
 Alpha virt. eigenvalues --    0.35147   0.35326   0.36327   0.37200   0.37250
 Alpha virt. eigenvalues --    0.37537   0.38581   0.39051   0.40500   0.42827
 Alpha virt. eigenvalues --    0.43056   0.44175   0.44888   0.47438   0.47719
 Alpha virt. eigenvalues --    0.48164   0.48792   0.51150   0.53385   0.53775
 Alpha virt. eigenvalues --    0.56960   0.57491   0.58786   0.59585   0.60574
 Alpha virt. eigenvalues --    0.62696   0.63593   0.64044   0.64528   0.64699
 Alpha virt. eigenvalues --    0.65514   0.65736   0.66260   0.66974   0.67233
 Alpha virt. eigenvalues --    0.68225   0.69210   0.69449   0.69801   0.71555
 Alpha virt. eigenvalues --    0.71644   0.72312   0.72558   0.72563   0.72714
 Alpha virt. eigenvalues --    0.73345   0.74415   0.75182   0.75581   0.77226
 Alpha virt. eigenvalues --    0.78782   0.78787   0.79014   0.80123   0.80170
 Alpha virt. eigenvalues --    0.81692   0.82512   0.84590   0.86651   0.87646
 Alpha virt. eigenvalues --    0.88342   0.89083   0.90011   0.91206   0.91965
 Alpha virt. eigenvalues --    0.92073   0.93039   0.93287   0.93632   0.95077
 Alpha virt. eigenvalues --    0.95802   0.98632   0.99027   1.01094   1.01231
 Alpha virt. eigenvalues --    1.03450   1.03795   1.05666   1.07942   1.09058
 Alpha virt. eigenvalues --    1.09691   1.10665   1.10730   1.11000   1.11758
 Alpha virt. eigenvalues --    1.13494   1.16450   1.16453   1.16588   1.16764
 Alpha virt. eigenvalues --    1.17941   1.19762   1.20477   1.21871   1.21879
 Alpha virt. eigenvalues --    1.23084   1.24327   1.25674   1.26764   1.28159
 Alpha virt. eigenvalues --    1.28365   1.31440   1.31988   1.33233   1.33604
 Alpha virt. eigenvalues --    1.36281   1.37471   1.39484   1.40624   1.40649
 Alpha virt. eigenvalues --    1.40703   1.41604   1.42287   1.42780   1.42845
 Alpha virt. eigenvalues --    1.45002   1.45432   1.45544   1.45667   1.47007
 Alpha virt. eigenvalues --    1.47253   1.48446   1.51187   1.52843   1.53326
 Alpha virt. eigenvalues --    1.54001   1.54088   1.56794   1.61526   1.65049
 Alpha virt. eigenvalues --    1.75991   1.76020   1.76903   1.78853   1.80339
 Alpha virt. eigenvalues --    1.81016   1.81238   1.81786   1.85144   1.85454
 Alpha virt. eigenvalues --    1.87692   1.87799   1.90377   1.93079   1.93762
 Alpha virt. eigenvalues --    1.94364   1.95285   1.96340   1.96413   1.97298
 Alpha virt. eigenvalues --    1.98982   2.00859   2.03779   2.03780   2.05571
 Alpha virt. eigenvalues --    2.06658   2.06786   2.10290   2.11606   2.12543
 Alpha virt. eigenvalues --    2.12910   2.16616   2.16651   2.18217   2.18618
 Alpha virt. eigenvalues --    2.20378   2.20622   2.26224   2.26439   2.26462
 Alpha virt. eigenvalues --    2.27088   2.27664   2.30047   2.32432   2.34674
 Alpha virt. eigenvalues --    2.39696   2.39843   2.44186   2.44981   2.45915
 Alpha virt. eigenvalues --    2.54731   2.54979   2.57415   2.60177   2.60956
 Alpha virt. eigenvalues --    2.63371   2.64347   2.65661   2.65755   2.68132
 Alpha virt. eigenvalues --    2.72165   2.72309   2.72996   2.75010   2.77653
 Alpha virt. eigenvalues --    2.78034   2.79350   2.83926   2.92262   2.93954
 Alpha virt. eigenvalues --    2.94793   3.08061   3.09912   3.14510   3.23124
 Alpha virt. eigenvalues --    3.27125   3.35789   3.37939   3.92373   4.00287
 Alpha virt. eigenvalues --    4.17884   4.21607   4.21882   4.25241   4.25759
 Alpha virt. eigenvalues --    4.27581   4.29183   4.30672   4.33142   4.37762
 Alpha virt. eigenvalues --    4.38375   4.42174   4.42652   4.51551   4.64180
 Alpha virt. eigenvalues --    4.67315   4.75229   4.84872
          Condensed to atoms (all electrons):
               1          2          3          4          5          6
     1  C   14.122205  -3.741999   0.823068  -0.874153   0.494917  -1.441714
     2  C   -3.741999  13.712261  -3.046487   0.120864  -0.122417  -0.749131
     3  C    0.823068  -3.046487   8.217607   0.356035  -0.268942   0.804997
     4  C   -0.874153   0.120864   0.356035   5.761517   0.540792  -0.076916
     5  C    0.494917  -0.122417  -0.268942   0.540792   6.214290  -0.211739
     6  C   -1.441714  -0.749131   0.804997  -0.076916  -0.211739   7.900268
     7  C   -1.013991   1.455559  -0.998872   0.107601  -0.356949  -0.836023
     8  C   -2.085223  -0.400292  -0.250232  -0.215793  -0.216900   0.095614
     9  H    0.044271  -0.026791   0.314731  -0.039252   0.003019  -0.019458
    10  H    0.010603   0.017760  -0.034875   0.301082   0.008324  -0.001720
    11  H    0.011793  -0.016446   0.017840  -0.003075   0.334882  -0.037327
    12  H   -0.045862   0.055879  -0.018906   0.005890  -0.086756   0.327648
    13  C    0.104242  -0.116920   0.015510  -0.030804  -0.016515  -0.056595
    14  C   -0.561037  -0.084501  -0.020113   0.002775  -0.027838   0.083136
    15  C   -0.168821   0.056831  -0.002613   0.004069  -0.006426   0.012666
    16  C    0.056831  -0.004928  -0.007561  -0.001981   0.004737  -0.012576
    17  C    0.012666  -0.012576  -0.004522  -0.000257   0.000277  -0.010363
    18  C   -0.002613  -0.007561  -0.012899  -0.000973   0.000383  -0.004522
    19  C   -0.006426   0.004737   0.000383   0.000081  -0.000145   0.000277
    20  H   -0.000036   0.000044   0.000002   0.000000  -0.000001  -0.000003
    21  C    0.004069  -0.001981  -0.000973  -0.000115   0.000081  -0.000257
    22  H    0.000021   0.000044   0.000007   0.000000   0.000000   0.000001
    23  H    0.000001   0.000000   0.000000   0.000000   0.000000   0.000000
    24  H    0.000000   0.000000   0.000000   0.000000   0.000000   0.000000
    25  S   -0.516599  -0.200550   0.570450   0.046582  -0.074574   0.362881
    26  S    0.128431  -0.016169  -0.122251  -0.032261   0.007606  -0.063160
    27  O   -0.048596  -0.005931  -0.001074   0.000158  -0.000688  -0.001237
    28  O   -0.075089  -0.128579   0.029541  -0.007976   0.016125   0.027729
               7          8          9         10         11         12
     1  C   -1.013991  -2.085223   0.044271   0.010603   0.011793  -0.045862
     2  C    1.455559  -0.400292  -0.026791   0.017760  -0.016446   0.055879
     3  C   -0.998872  -0.250232   0.314731  -0.034875   0.017840  -0.018906
     4  C    0.107601  -0.215793  -0.039252   0.301082  -0.003075   0.005890
     5  C   -0.356949  -0.216900   0.003019   0.008324   0.334882  -0.086756
     6  C   -0.836023   0.095614  -0.019458  -0.001720  -0.037327   0.327648
     7  C    8.720511   0.232228   0.005374  -0.000389  -0.008939   0.042322
     8  C    0.232228   9.142893  -0.001890   0.001303  -0.000702   0.002681
     9  H    0.005374  -0.001890   0.516896  -0.004503  -0.000135   0.000015
    10  H   -0.000389   0.001303  -0.004503   0.520364  -0.004256  -0.000130
    11  H   -0.008939  -0.000702  -0.000135  -0.004256   0.518079  -0.003490
    12  H    0.042322   0.002681   0.000015  -0.000130  -0.003490   0.491063
    13  C   -0.353878  -0.172291   0.001163   0.000007  -0.000069   0.003106
    14  C   -0.177424  -0.353878  -0.000003  -0.000002   0.000010  -0.000203
    15  C   -0.561037   0.104242   0.000021   0.000000   0.000001  -0.000036
    16  C   -0.084501  -0.116920   0.000044   0.000000   0.000000   0.000044
    17  C    0.083136  -0.056595   0.000001   0.000000   0.000000  -0.000003
    18  C   -0.020113   0.015510   0.000007   0.000000   0.000000   0.000002
    19  C   -0.027838  -0.016515   0.000000   0.000000   0.000000  -0.000001
    20  H   -0.000203   0.003106   0.000000   0.000000   0.000000   0.000000
    21  C    0.002775  -0.030804   0.000000   0.000000   0.000000   0.000000
    22  H   -0.000003   0.001163   0.000000   0.000000   0.000000   0.000000
    23  H    0.000010  -0.000069   0.000000   0.000000   0.000000   0.000000
    24  H   -0.000002   0.000007   0.000000   0.000000   0.000000   0.000000
    25  S   -0.690650   0.156302   0.009471  -0.004736  -0.000124  -0.001557
    26  S   -0.065933  -0.021554   0.001119   0.000001  -0.000018   0.000266
    27  O   -0.081165   0.111224   0.000000   0.000000   0.000000   0.000003
    28  O    0.402113  -0.139365   0.000009   0.000004   0.000079   0.005001
              13         14         15         16         17         18
     1  C    0.104242  -0.561037  -0.168821   0.056831   0.012666  -0.002613
     2  C   -0.116920  -0.084501   0.056831  -0.004928  -0.012576  -0.007561
     3  C    0.015510  -0.020113  -0.002613  -0.007561  -0.004522  -0.012899
     4  C   -0.030804   0.002775   0.004069  -0.001981  -0.000257  -0.000973
     5  C   -0.016515  -0.027838  -0.006426   0.004737   0.000277   0.000383
     6  C   -0.056595   0.083136   0.012666  -0.012576  -0.010363  -0.004522
     7  C   -0.353878  -0.177424  -0.561037  -0.084501   0.083136  -0.020113
     8  C   -0.172291  -0.353878   0.104242  -0.116920  -0.056595   0.015510
     9  H    0.001163  -0.000003   0.000021   0.000044   0.000001   0.000007
    10  H    0.000007  -0.000002   0.000000   0.000000   0.000000   0.000000
    11  H   -0.000069   0.000010   0.000001   0.000000   0.000000   0.000000
    12  H    0.003106  -0.000203  -0.000036   0.000044  -0.000003   0.000002
    13  C    9.142893   0.232228  -2.085223  -0.400292   0.095614  -0.250232
    14  C    0.232228   8.720511  -1.013991   1.455559  -0.836023  -0.998872
    15  C   -2.085223  -1.013991  14.122205  -3.741999  -1.441714   0.823068
    16  C   -0.400292   1.455559  -3.741999  13.712261  -0.749131  -3.046487
    17  C    0.095614  -0.836023  -1.441714  -0.749131   7.900268   0.804997
    18  C   -0.250232  -0.998872   0.823068  -3.046487   0.804997   8.217607
    19  C   -0.216900  -0.356949   0.494917  -0.122417  -0.211739  -0.268942
    20  H    0.002681   0.042322  -0.045862   0.055879   0.327648  -0.018906
    21  C   -0.215793   0.107601  -0.874153   0.120864  -0.076916   0.356035
    22  H   -0.001890   0.005374   0.044271  -0.026791  -0.019458   0.314731
    23  H   -0.000702  -0.008939   0.011793  -0.016446  -0.037327   0.017840
    24  H    0.001303  -0.000389   0.010603   0.017760  -0.001720  -0.034875
    25  S   -0.021554  -0.065933   0.128431  -0.016169  -0.063160  -0.122251
    26  S    0.156302  -0.690650  -0.516599  -0.200550   0.362881   0.570450
    27  O   -0.139365   0.402113  -0.075089  -0.128579   0.027729   0.029541
    28  O    0.111224  -0.081165  -0.048596  -0.005931  -0.001237  -0.001074
              19         20         21         22         23         24
     1  C   -0.006426  -0.000036   0.004069   0.000021   0.000001   0.000000
     2  C    0.004737   0.000044  -0.001981   0.000044   0.000000   0.000000
     3  C    0.000383   0.000002  -0.000973   0.000007   0.000000   0.000000
     4  C    0.000081   0.000000  -0.000115   0.000000   0.000000   0.000000
     5  C   -0.000145  -0.000001   0.000081   0.000000   0.000000   0.000000
     6  C    0.000277  -0.000003  -0.000257   0.000001   0.000000   0.000000
     7  C   -0.027838  -0.000203   0.002775  -0.000003   0.000010  -0.000002
     8  C   -0.016515   0.003106  -0.030804   0.001163  -0.000069   0.000007
     9  H    0.000000   0.000000   0.000000   0.000000   0.000000   0.000000
    10  H    0.000000   0.000000   0.000000   0.000000   0.000000   0.000000
    11  H    0.000000   0.000000   0.000000   0.000000   0.000000   0.000000
    12  H   -0.000001   0.000000   0.000000   0.000000   0.000000   0.000000
    13  C   -0.216900   0.002681  -0.215793  -0.001890  -0.000702   0.001303
    14  C   -0.356949   0.042322   0.107601   0.005374  -0.008939  -0.000389
    15  C    0.494917  -0.045862  -0.874153   0.044271   0.011793   0.010603
    16  C   -0.122417   0.055879   0.120864  -0.026791  -0.016446   0.017760
    17  C   -0.211739   0.327648  -0.076916  -0.019458  -0.037327  -0.001720
    18  C   -0.268942  -0.018906   0.356035   0.314731   0.017840  -0.034875
    19  C    6.214290  -0.086756   0.540792   0.003019   0.334882   0.008324
    20  H   -0.086756   0.491063   0.005890   0.000015  -0.003490  -0.000130
    21  C    0.540792   0.005890   5.761517  -0.039252  -0.003075   0.301082
    22  H    0.003019   0.000015  -0.039252   0.516896  -0.000135  -0.004503
    23  H    0.334882  -0.003490  -0.003075  -0.000135   0.518079  -0.004256
    24  H    0.008324  -0.000130   0.301082  -0.004503  -0.004256   0.520364
    25  S    0.007606   0.000266  -0.032261   0.001119  -0.000018   0.000001
    26  S   -0.074574  -0.001557   0.046582   0.009471  -0.000124  -0.004736
    27  O    0.016125   0.005001  -0.007976   0.000009   0.000079   0.000004
    28  O   -0.000688   0.000003   0.000158   0.000000   0.000000   0.000000
              25         26         27         28
     1  C   -0.516599   0.128431  -0.048596  -0.075089
     2  C   -0.200550  -0.016169  -0.005931  -0.128579
     3  C    0.570450  -0.122251  -0.001074   0.029541
     4  C    0.046582  -0.032261   0.000158  -0.007976
     5  C   -0.074574   0.007606  -0.000688   0.016125
     6  C    0.362881  -0.063160  -0.001237   0.027729
     7  C   -0.690650  -0.065933  -0.081165   0.402113
     8  C    0.156302  -0.021554   0.111224  -0.139365
     9  H    0.009471   0.001119   0.000000   0.000009
    10  H   -0.004736   0.000001   0.000000   0.000004
    11  H   -0.000124  -0.000018   0.000000   0.000079
    12  H   -0.001557   0.000266   0.000003   0.005001
    13  C   -0.021554   0.156302  -0.139365   0.111224
    14  C   -0.065933  -0.690650   0.402113  -0.081165
    15  C    0.128431  -0.516599  -0.075089  -0.048596
    16  C   -0.016169  -0.200550  -0.128579  -0.005931
    17  C   -0.063160   0.362881   0.027729  -0.001237
    18  C   -0.122251   0.570450   0.029541  -0.001074
    19  C    0.007606  -0.074574   0.016125  -0.000688
    20  H    0.000266  -0.001557   0.005001   0.000003
    21  C   -0.032261   0.046582  -0.007976   0.000158
    22  H    0.001119   0.009471   0.000009   0.000000
    23  H   -0.000018  -0.000124   0.000079   0.000000
    24  H    0.000001  -0.004736   0.000004   0.000000
    25  S   17.060461  -0.352875   0.008716   0.014275
    26  S   -0.352875  17.060461   0.014275   0.008716
    27  O    0.008716   0.014275   8.307549  -0.018815
    28  O    0.014275   0.008716  -0.018815   8.307549
 Mulliken charges:
               1
     1  C    0.769039
     2  C   -0.740721
     3  C   -0.359851
     4  C    0.036110
     5  C   -0.235542
     6  C   -0.092476
     7  C    0.226282
     8  C    0.212751
     9  H    0.195890
    10  H    0.191163
    11  H    0.191897
    12  H    0.223023
    13  C    0.212751
    14  C    0.226282
    15  C    0.769039
    16  C   -0.740721
    17  C   -0.092476
    18  C   -0.359851
    19  C   -0.235542
    20  H    0.223023
    21  C    0.036110
    22  H    0.195890
    23  H    0.191897
    24  H    0.191163
    25  S   -0.203552
    26  S   -0.203552
    27  O   -0.414014
    28  O   -0.414014
 Sum of Mulliken charges =   0.00000
 Mulliken charges with hydrogens summed into heavy atoms:
               1
     1  C    0.769039
     2  C   -0.740721
     3  C   -0.163961
     4  C    0.227273
     5  C   -0.043645
     6  C    0.130547
     7  C    0.226282
     8  C    0.212751
    13  C    0.212751
    14  C    0.226282
    15  C    0.769039
    16  C   -0.740721
    17  C    0.130547
    18  C   -0.163961
    19  C   -0.043645
    21  C    0.227273
    25  S   -0.203552
    26  S   -0.203552
    27  O   -0.414014
    28  O   -0.414014
 Electronic spatial extent (au):  <R**2>=           7660.1035
 Charge=              0.0000 electrons
 Dipole moment (field-independent basis, Debye):
    X=              0.0000    Y=              0.0000    Z=             -4.1371  Tot=              4.1371
 Quadrupole moment (field-independent basis, Debye-Ang):
   XX=           -134.2579   YY=            -84.2075   ZZ=           -133.2716
   XY=              3.8448   XZ=              0.0000   YZ=              0.0000
 Traceless Quadrupole moment (field-independent basis, Debye-Ang):
   XX=            -17.0122   YY=             33.0382   ZZ=            -16.0259
   XY=              3.8448   XZ=              0.0000   YZ=              0.0000
 Octapole moment (field-independent basis, Debye-Ang**2):
  XXX=              0.0000  YYY=              0.0000  ZZZ=            -29.2828  XYY=              0.0000
  XXY=              0.0000  XXZ=              5.2132  XZZ=              0.0000  YZZ=              0.0000
  YYZ=             -6.0076  XYZ=             -2.5055
 Hexadecapole moment (field-independent basis, Debye-Ang**3):
 XXXX=           -195.7736 YYYY=          -7404.0572 ZZZZ=          -1509.2953 XXXY=           -152.6850
 XXXZ=              0.0000 YYYX=            -19.3056 YYYZ=              0.0000 ZZZX=              0.0000
 ZZZY=              0.0000 XXYY=          -1702.0356 XXZZ=           -297.1915 YYZZ=          -1549.6247
 XXYZ=              0.0000 YYXZ=              0.0000 ZZXY=            -20.3511
 N-N= 1.621300018215D+03 E-N=-6.910373926503D+03  KE= 1.550936963355D+03
 Symmetry A    KE= 7.749071791557D+02
 Symmetry B    KE= 7.760297841993D+02
 No NMR shielding tensors so no spin-rotation constants.
 Leave Link  601 at Tue Feb 24 08:03:37 2015, MaxMem=  5368709120 cpu:         8.5
 (Enter /usr/software/gaussian/g09.revD01/l701.exe)
 Compute integral first derivatives.
 ... and contract with generalized density number  0.
 Leave Link  701 at Tue Feb 24 08:03:38 2015, MaxMem=  5368709120 cpu:         4.2
 (Enter /usr/software/gaussian/g09.revD01/l702.exe)
 L702 exits ... SP integral derivatives will be done elsewhere.
 Leave Link  702 at Tue Feb 24 08:03:38 2015, MaxMem=  5368709120 cpu:         0.4
 (Enter /usr/software/gaussian/g09.revD01/l703.exe)
 Compute integral first derivatives, UseDBF=F ICtDFT=           0.
 Integral derivatives from FoFJK, PRISM(SPDF).
 Calling FoFJK, ICntrl=      2127 FMM=F ISym2X=1 I1Cent= 0 IOpClX= 0 NMat=1 NMatS=1 NMatT=0.
 FoFJK:  IHMeth= 1 ICntrl=    2127 DoSepK=F KAlg= 0 I1Cent=   0 FoldK=F
 IRaf=         0 NMat=   1 IRICut=       1 DoRegI=T DoRafI=F ISym2E= 1.
 FoFCou: FMM=F IPFlag=           0 FMFlag=      100000 FMFlg1=         800
         NFxFlg=           0 DoJE=F BraDBF=F KetDBF=F FulRan=T
         wScrn=  0.000000 ICntrl=    2127 IOpCl=  0 I1Cent=           0 NGrid=           0
         NMat0=    1 NMatS0=      1 NMatT0=    0 NMatD0=    1 NMtDS0=    0 NMtDT0=    0
 Petite list used in FoFCou.
 Leave Link  703 at Tue Feb 24 08:04:11 2015, MaxMem=  5368709120 cpu:       393.3
 (Enter /usr/software/gaussian/g09.revD01/l716.exe)
 Dipole        = 1.42108547D-14-3.19744231D-13-1.62764541D+00
 ***** Axes restored to original set *****
 -------------------------------------------------------------------
 Center     Atomic                   Forces (Hartrees/Bohr)
 Number     Number              X              Y              Z
 -------------------------------------------------------------------
      1        6          -0.001148947   -0.003968908    0.002720792
      2        6           0.000254498    0.000311845    0.001651708
      3        6           0.000582103   -0.001939784    0.000099699
      4        6          -0.001115899    0.000302508    0.003409234
      5        6           0.001579828   -0.001446652   -0.002118430
      6        6          -0.001075799    0.002847854    0.000465080
      7        6          -0.009685460   -0.009139077    0.033133046
      8        6          -0.001076173    0.001413870    0.006865817
      9        1          -0.000599956   -0.000706376    0.003161724
     10        1          -0.000093379   -0.001586582    0.001508288
     11        1          -0.000372508    0.000038124   -0.000199209
     12        1           0.000691865    0.000703936   -0.003857634
     13        6           0.001076173   -0.001413870    0.006865817
     14        6           0.009685460    0.009139077    0.033133046
     15        6           0.001148947    0.003968908    0.002720792
     16        6          -0.000254498   -0.000311845    0.001651708
     17        6           0.001075799   -0.002847854    0.000465080
     18        6          -0.000582103    0.001939784    0.000099699
     19        6          -0.001579828    0.001446652   -0.002118430
     20        1          -0.000691865   -0.000703936   -0.003857634
     21        6           0.001115899   -0.000302508    0.003409234
     22        1           0.000599956    0.000706376    0.003161724
     23        1           0.000372508   -0.000038124   -0.000199209
     24        1           0.000093379    0.001586582    0.001508288
     25       16          -0.000298676    0.000286495    0.001729635
     26       16           0.000298676   -0.000286495    0.001729635
     27        8          -0.013655398   -0.009241048   -0.048569751
     28        8           0.013655398    0.009241048   -0.048569751
 -------------------------------------------------------------------
 Cartesian Forces:  Max     0.048569751 RMS     0.009824853
 Leave Link  716 at Tue Feb 24 08:04:11 2015, MaxMem=  5368709120 cpu:         0.5
 (Enter /usr/software/gaussian/g09.revD01/l103.exe)

 GradGradGradGradGradGradGradGradGradGradGradGradGradGradGradGradGradGrad
 Berny optimization.
 FormGI is forming the generalized inverse of G from B-inverse, IUseBI=4.
 Internal  Forces:  Max     0.051195482 RMS     0.006311361
 Search for a local minimum.
 Step number   1 out of a maximum of  167
 All quantities printed in internal units (Hartrees-Bohrs-Radians)
 RMS Force = .63114D-02 SwitMx=.10000D-02 MixMth= 1
 Mixed Optimization -- RFO/linear search
 Second derivative matrix not updated -- first step.
 ITU=  0
     Eigenvalues ---    0.00547   0.00547   0.00684   0.00684   0.01294
     Eigenvalues ---    0.01294   0.01566   0.01566   0.01691   0.01691
     Eigenvalues ---    0.01851   0.01851   0.02015   0.02015   0.02047
     Eigenvalues ---    0.02047   0.02051   0.02051   0.02110   0.02110
     Eigenvalues ---    0.02111   0.02111   0.02112   0.02112   0.02528
     Eigenvalues ---    0.15998   0.15998   0.15999   0.15999   0.15999
     Eigenvalues ---    0.15999   0.16000   0.16000   0.22000   0.22000
     Eigenvalues ---    0.22597   0.22597   0.24501   0.24501   0.24830
     Eigenvalues ---    0.24830   0.24944   0.24944   0.24969   0.24969
     Eigenvalues ---    0.24985   0.24985   0.27420   0.27420   0.27691
     Eigenvalues ---    0.27691   0.28927   0.28927   0.32991   0.32991
     Eigenvalues ---    0.34576   0.34576   0.34696   0.34696   0.34826
     Eigenvalues ---    0.34826   0.35250   0.35250   0.39750   0.39750
     Eigenvalues ---    0.41881   0.41881   0.43969   0.43969   0.45412
     Eigenvalues ---    0.45412   0.45856   0.45856   0.45947   0.45947
     Eigenvalues ---    0.51603   0.81968   0.81968
 RFO step:  Lambda=-1.01206657D-02 EMin= 5.47159216D-03
 Linear search not attempted -- first point.
 Iteration  1 RMS(Cart)=  0.07800566 RMS(Int)=  0.00115806
 Iteration  2 RMS(Cart)=  0.00248516 RMS(Int)=  0.00008540
 Iteration  3 RMS(Cart)=  0.00000145 RMS(Int)=  0.00008539
 Iteration  4 RMS(Cart)=  0.00000000 RMS(Int)=  0.00008539
 ITry= 1 IFail=0 DXMaxC= 2.29D-01 DCOld= 1.00D+10 DXMaxT= 3.00D-01 DXLimC= 3.00D+00 Rises=F
 ClnCor:  largest displacement from symmetrization is 5.94D-11 for atom    24.
 Variable       Old X    -DE/DX   Delta X   Delta X   Delta X     New X
                                 (Linear)    (Quad)   (Total)
    R1        2.64917  -0.00402   0.00000  -0.00889  -0.00890   2.64027
    R2        2.64209   0.00021   0.00000   0.00048   0.00048   2.64257
    R3        2.81395  -0.00756   0.00000  -0.02250  -0.02245   2.79150
    R4        2.64135  -0.00364   0.00000  -0.00774  -0.00775   2.63360
    R5        3.35890   0.00070   0.00000   0.00288   0.00282   3.36172
    R6        2.64395   0.00005   0.00000   0.00009   0.00009   2.64404
    R7        2.06172  -0.00325   0.00000  -0.00909  -0.00909   2.05263
    R8        2.66343  -0.00522   0.00000  -0.01158  -0.01158   2.65185
    R9        2.05958  -0.00209   0.00000  -0.00583  -0.00583   2.05375
   R10        2.64254  -0.00376   0.00000  -0.00801  -0.00800   2.63453
   R11        2.05271  -0.00007   0.00000  -0.00021  -0.00021   2.05250
   R12        2.06370  -0.00396   0.00000  -0.01112  -0.01112   2.05258
   R13        2.89508  -0.01118   0.00000  -0.03714  -0.03710   2.85798
   R14        2.36871  -0.05120   0.00000  -0.06170  -0.06170   2.30702
   R15        2.58282  -0.00368   0.00000  -0.00699  -0.00699   2.57583
   R16        3.36500  -0.00198   0.00000  -0.00626  -0.00627   3.35873
   R17        2.89508  -0.01118   0.00000  -0.03714  -0.03710   2.85798
   R18        3.36500  -0.00198   0.00000  -0.00626  -0.00627   3.35873
   R19        2.81395  -0.00756   0.00000  -0.02250  -0.02245   2.79150
   R20        2.36871  -0.05120   0.00000  -0.06170  -0.06170   2.30702
   R21        2.64917  -0.00402   0.00000  -0.00889  -0.00890   2.64027
   R22        2.64209   0.00021   0.00000   0.00048   0.00048   2.64257
[...]
 861107,-0.00450433,0.06441973,-0.19839727,-0.01130270,0.02124491,-0.32
 023539,-0.00038307,-0.00168490,0.00089262,0.02506388,0.02868964,0.6671
 1538,-0.00002248,-0.00000168,0.00000153,-0.00000213,0.00000649,0.00000
 206,0.00000967,-0.00000503,-0.00000082,-0.00000397,0.00000202,0.000002
 24,0.00000451,0.00000061,-0.00000164,-0.00000712,0.00000023,-0.0000000
 4,0.00015216,0.00002571,-0.00000138,0.00005999,0.00001313,0.00000516,0
 .00000174,-0.00000014,0.00000032,-0.00000060,-0.00000046,-0.00000002,0
 .00000092,-0.00000025,-0.00000002,0.00000200,0.00000011,-0.00000005,-0
 .00064733,0.00000837,0.00000017,0.00050011,0.00006143,-0.00007605,0.00
 685824,-0.00038781,-0.00028479,0.00147576,0.00012095,-0.00115540,-0.00
 058975,-0.00003972,0.00003161,-0.03535905,-0.00172626,-0.01402591,0.00
 699461,-0.00011626,-0.00023717,-0.00114648,0.00003099,0.00005724,0.002
 86599,-0.00002647,-0.00009198,0.02471483,-0.00000380,0.00002425,0.0000
 3033,-0.00000476,-0.00004719,-0.00000164,0.00000128,0.00001786,0.00000
 527,0.00000131,-0.00000383,-0.00000486,-0.00000180,0.00000509,0.000005
 44,0.00000317,-0.00000226,-0.00000676,0.00000181,0.00000417,-0.0002143
 6,0.00001066,0.00021149,0.00027039,-0.00000014,-0.00000493,-0.00000142
 ,0.00000012,0.00000261,-0.00000025,-0.00000002,0.00000330,0.00000057,-
 0.00000038,0.00000137,0.00000206,0.00001859,-0.00053732,-0.00027352,-0
 .00006881,0.00154218,-0.00157733,-0.00030090,-0.00503174,-0.00078841,-
 0.00124921,0.00195416,-0.02979955,0.00000106,-0.00123254,0.00018341,-0
 .00167530,-0.06135526,-0.02230662,-0.00017079,-0.00420792,0.00219988,0
 .00002706,0.00016672,-0.00004619,0.00130032,0.00678957,0.02731508,0.00
 196227,0.06049202,-0.00000229,-0.00002795,0.00000451,-0.00000240,0.000
 05169,0.00001141,0.00000014,-0.00003029,-0.00001551,0.00000023,0.00000
 590,0.00001706,-0.00000022,0.00000112,-0.00000879,0.00000056,-0.000000
 61,0.00000339,-0.00000756,0.00007035,-0.00005752,0.00001391,0.00021528
 ,0.00008460,-0.00000032,0.00000142,0.00000280,-0.00000005,-0.00000414,
 0.00000015,-0.00000028,-0.00000267,-0.00000130,-0.00000032,0.00000167,
 -0.00000145,0.00000737,-0.00033383,-0.00031914,0.00005216,0.00121164,0
 .00001615,-0.00032271,-0.00258461,0.00111633,-0.00045072,0.00042057,-0
 .00920173,0.00005709,0.00010381,0.00059343,-0.01400078,-0.02193064,-0.
 33832294,-0.00019647,0.00325677,0.00048325,0.00004280,-0.00003433,-0.0
 0007156,-0.00079238,-0.00346190,-0.01320819,0.01542096,0.02426479,0.35
 848689,-0.00002402,-0.00000093,-0.00000158,-0.00000172,-0.00000147,0.0
 0000481,0.00000925,-0.00000242,-0.00000193,-0.00000023,-0.00000046,0.0
 0000125,0.00000246,-0.00000059,0.00000030,-0.00000461,0.00000074,0.000
 00032,0.00007927,0.00000900,0.00000696,-0.00005586,-0.00000382,0.00001
 194,0.00000092,-0.00000002,0.00000028,-0.00000141,-0.00000022,-0.00000
 013,0.00000115,-0.00000019,0.00000006,0.00000162,0.00000022,0.00000002
 ,-0.00039364,-0.00006200,0.00004809,0.00065882,-0.00004057,-0.00000004
 ,0.00704840,-0.00041047,-0.00040493,-0.00047199,-0.00002069,-0.0000673
 9,0.00276880,-0.00109673,0.00090432,0.00627767,-0.00019884,-0.00058425
 ,-0.03553369,0.00065194,-0.00202908,-0.00413621,0.00015945,0.00025806,
 0.00238296,0.00139570,-0.00077760,0.00029753,0.00006628,-0.00005526,0.
 02535090,-0.00000029,-0.00002636,-0.00001935,-0.00000014,0.00007682,0.
 00006559,-0.00000041,-0.00006229,-0.00002928,-0.00000113,0.00001186,0.
 00003262,0.00000151,0.00000141,-0.00001974,-0.00000199,-0.00000658,0.0
 0001766,-0.00001467,0.00014148,0.00012855,0.00001727,0.00003049,0.0000
 3214,-0.00000025,0.00000330,0.00000267,-0.00000008,-0.00000685,0.00000
 047,-0.00000019,-0.00000648,-0.00000198,0.00000049,0.00000289,-0.00000
 221,0.00000153,-0.00065796,-0.00008923,0.00012863,0.00037892,0.0015779
 8,-0.00052804,-0.00372223,-0.00384754,-0.00002555,0.00005952,-0.000959
 51,0.00029372,-0.01907066,0.01745539,-0.00017841,0.00122608,-0.0010940
 1,0.00068991,-0.25435730,0.13067854,0.00013150,0.00108518,-0.00016083,
 -0.00007293,0.00598146,-0.00350152,-0.00001270,0.00019766,-0.00026165,
 -0.00052001,0.26826685,0.00000251,0.00001617,0.00000808,-0.00000037,-0
 .00003580,0.00000287,-0.00000069,0.00001233,0.00000455,0.00000074,-0.0
 0000254,-0.00000853,-0.00000149,-0.00000047,0.00000244,0.00000243,0.00
 000030,-0.00000345,-0.00000230,-0.00004443,-0.00006850,0.00000605,0.00
 005977,0.00016989,0.00000002,-0.00000057,-0.00000130,0.00000020,0.0000
 0182,-0.00000059,-0.00000006,0.00000198,0.00000090,-0.00000018,-0.0000
 0178,0.00000067,0.00001771,-0.00027212,-0.00013133,-0.00001395,-0.0003
 0857,0.00069074,-0.00046320,-0.00298943,-0.00067925,-0.00004025,-0.001
 14784,-0.00078059,0.00012485,-0.01337471,0.01209499,-0.00058769,-0.001
 81909,-0.00519237,-0.00199904,0.13044009,-0.14700269,0.00024920,0.0005
 2804,0.00076765,-0.00002162,0.02776245,-0.01297926,-0.00000629,0.00135
 456,-0.00067993,0.00248566,-0.13993776,0.15264597,-0.00003372,0.000000
 22,-0.00000042,-0.00004386,0.00000334,0.00000116,0.00000419,-0.0000016
 3,-0.00000092,0.00000283,0.00000044,0.00000102,0.00000537,-0.00000021,
 -0.00000009,0.00000038,-0.00000038,0.00000032,0.00013191,0.00001456,0.
 00001037,-0.00006443,0.00000665,0.00000592,-0.00000060,0.00000012,0.00
 000005,-0.00000057,-0.00000024,0.,-0.00000141,-0.00000008,-0.00000020,
 0.00000098,0.00000045,0.00000006,-0.00011992,0.00000693,-0.00006111,-0
 .00099016,-0.00000911,0.00002945,-0.00054015,0.00005842,0.00004904,0.0
 0693995,-0.00011098,-0.00029835,0.00655167,-0.00011995,-0.00059564,0.0
 0398584,0.00026391,0.00002840,0.00397444,-0.00140860,-0.00051735,-0.00
 013804,-0.00005196,-0.00000464,-0.03868421,-0.01117514,-0.00610537,-0.
 00406834,0.00010785,0.00022037,-0.00371495,0.00012530,0.00020979,0.026
 28271,0.00000238,-0.00005342,-0.00004751,-0.00000011,0.00009323,0.0000
 4134,0.00000115,-0.00005047,-0.00002833,-0.00000223,0.00000594,0.00002
 659,0.00000285,-0.00000359,-0.00001231,-0.00000340,-0.00000127,0.00001
 820,-0.00001693,0.00010473,0.00023713,0.00000803,-0.00014885,-0.000321
 78,-0.00000046,0.00000261,0.00000414,-0.00000024,-0.00000737,0.0000002
 4,-0.00000022,-0.00000685,-0.00000182,0.00000048,0.00000269,-0.0000025
 4,0.00000427,-0.00020795,0.00039307,0.00004867,0.00001108,0.00008893,0
 .00004778,0.00032591,0.00070944,-0.00009510,-0.00253666,0.00350848,-0.
 00011627,0.00147622,0.00002581,-0.00114975,-0.01872468,-0.01275602,-0.
 00001029,0.00218207,0.00115705,0.00001606,0.00000293,0.00018264,-0.011
 15643,-0.28727225,-0.10913261,0.00013371,0.00099490,0.00011745,0.00009
 568,0.00078252,-0.00031574,0.01225428,0.30359849,-0.00000239,0.0000088
 2,0.00002412,0.00000364,0.00000044,0.00000074,-0.00000082,-0.00000965,
 0.00000129,-0.00000028,0.00000389,0.00000493,0.00000108,0.00000329,-0.
 00000196,-0.00000193,0.00000101,0.00000217,-0.00000262,0.00006702,-0.0
 0004367,-0.00000964,0.00004669,0.00009845,0.00000002,0.00000025,0.0000
 0015,0.,-0.00000024,0.00000096,0.00000013,-0.00000047,-0.00000059,-0.0
 0000002,0.00000184,0.00000024,0.00003311,0.00007060,-0.00018059,0.0000
 3096,0.00010978,-0.00020040,-0.00000365,0.00092399,-0.00086449,-0.0002
 9738,0.00341508,-0.00136868,-0.00057661,0.00055505,-0.00599752,0.00078
 185,0.01778892,0.01130220,-0.00127814,-0.02971670,-0.00805959,-0.00004
 605,-0.00142119,-0.00036798,-0.00611650,-0.10925753,-0.11265664,0.0002
 1402,-0.00047166,0.00093477,0.00022875,0.00035495,0.00100548,0.0070296
 5,0.11714972,0.11562351,0.00497831,0.00137575,0.00110956,-0.02130212,-
 0.00065134,0.00123956,0.00141816,-0.00112707,-0.00076614,0.00352041,-0
 .00003643,0.00061009,-0.00072149,0.00020635,-0.00034066,0.00410707,-0.
 00059775,0.00036336,0.00108378,-0.00019940,0.00276264,-0.02347824,-0.0
 0184946,0.00305674,-0.00173637,0.00002514,-0.00007375,0.00037242,-0.00
 004461,-0.00000713,-0.00049404,0.00001181,-0.00003398,0.00018422,0.000
 04508,0.00002560,0.00516976,0.00006046,0.00013588,0.00531762,0.0006430
 5,-0.00086283,-0.00100807,-0.00002042,0.00006490,-0.00084357,-0.000019
 58,0.00005207,0.00016916,0.00001698,-0.00003981,0.00020404,0.00001490,
 0.00000639,0.00009462,-0.00001009,-0.00002483,-0.00011995,0.00001219,0
 .00001203,0.00011776,-0.00001587,0.00001611,-0.00005043,0.00000657,0.0
 0000201,-0.00005215,-0.00000217,0.00000143,-0.00000244,-0.00000248,0.0
 0000149,0.02371574,0.00099051,-0.01315270,-0.02640322,-0.00007911,-0.1
 1440880,-0.05963110,-0.00028147,-0.02815167,-0.01369542,-0.00017410,0.
 00207598,0.00556844,0.00004314,-0.00223565,-0.00281678,-0.00000867,0.0
 0260271,0.00079232,-0.00147122,-0.00571281,0.00860407,-0.00068705,-0.0
 5922763,0.04385578,-0.00002486,0.00101181,0.00038076,0.00005765,-0.000
 45543,-0.00058460,0.00000129,-0.00001921,-0.00000243,-0.00001592,-0.00
 060059,-0.00007451,-0.00031257,-0.03056763,0.03582268,-0.00111646,0.00
 463520,-0.01231124,0.00017314,-0.00178156,0.00106750,-0.00001684,-0.00
 123788,0.00136082,-0.00003494,0.00027033,-0.00083423,0.00002550,0.0002
 1011,-0.00000053,-0.00004371,-0.00021599,-0.00035109,0.00003229,0.0001
 4758,0.00003023,0.00000358,-0.00027972,0.00011604,-0.00000502,-0.00002
 139,-0.00010067,-0.00000557,-0.00015179,-0.00001152,-0.00000927,-0.000
 05214,-0.00003468,0.00157595,0.24704286,0.00065933,-0.03220540,-0.0244
 5247,0.00229134,-0.03169785,-0.08438021,-0.00024252,0.00537613,0.01251
 072,0.00036637,0.00235858,-0.00275833,-0.00024624,-0.00220847,0.001662
 22,0.00042086,0.00676250,-0.00276289,0.00076809,0.01381422,-0.03446867
 ,0.00138381,0.00950233,-0.12836365,-0.00011261,0.00010798,0.00046677,-
 0.00001286,0.00080757,0.00047462,0.00000957,-0.00000908,0.00017174,0.0
 0003016,-0.00095849,-0.00041708,0.00076015,0.02387803,-0.00719641,0.00
 071393,-0.00687558,0.00865868,-0.00006923,-0.00004549,0.00130323,0.000
 03743,-0.00039648,-0.00187661,0.00001928,-0.00021164,0.00015051,-0.000
 03374,0.00013335,0.00019163,0.00000539,-0.00016747,0.00012966,-0.00002
 687,-0.00009067,-0.00002406,0.00001049,0.00007165,0.00026498,0.0000082
 7,0.00001334,0.00009206,-0.00000365,0.00006755,-0.00002236,0.00001200,
 0.00002296,0.00004037,-0.00714685,0.02029028,0.26464295,-0.00100807,-0
 .00002042,-0.00006490,-0.00084357,-0.00001958,-0.00005207,0.00020404,0
 .00001490,-0.00000639,0.00011776,-0.00001587,-0.00001611,0.00009462,-0
 .00001009,0.00002483,0.00016916,0.00001698,0.00003981,0.00531762,0.000
 64305,0.00086283,0.00516976,0.00006046,-0.00013588,-0.00005043,0.00000
 657,-0.00000201,-0.00000244,-0.00000248,-0.00000149,-0.00005215,-0.000
 00217,-0.00000143,-0.00011995,0.00001219,-0.00001203,-0.02347824,-0.00
 184946,-0.00305674,0.00108378,-0.00019940,-0.00276264,0.00497831,0.001
 37575,-0.00110956,-0.02130212,-0.00065134,-0.00123956,0.00410707,-0.00
 059775,-0.00036336,0.00141816,-0.00112707,0.00076614,-0.00072149,0.000
 20635,0.00034066,0.00018422,0.00004508,-0.00002560,0.00352041,-0.00003
 643,-0.00061009,-0.00173637,0.00002514,0.00007375,-0.00049404,0.000011
 81,0.00003398,0.00037242,-0.00004461,0.00000713,-0.00167598,-0.0000444
 5,0.00009286,0.02371574,0.00017314,-0.00178156,-0.00106750,-0.00001684
 ,-0.00123788,-0.00136082,0.00002550,0.00021011,0.00000053,0.00000358,-
 0.00027972,-0.00011604,-0.00004371,-0.00021599,0.00035109,-0.00003494,
 0.00027033,0.00083423,-0.00111646,0.00463520,0.01231124,-0.00031257,-0
 .03056763,-0.03582268,-0.00000502,-0.00002139,0.00010067,-0.00000927,-
 0.00005214,0.00003468,-0.00000557,-0.00015179,0.00001152,0.00003229,0.
 00014758,-0.00003023,-0.00068705,-0.05922763,-0.04385578,-0.00147122,-
 0.00571281,-0.00860407,0.00099051,-0.01315270,0.02640322,-0.00007911,-
 0.11440880,0.05963110,-0.00000867,0.00260271,-0.00079232,-0.00028147,-
 0.02815167,0.01369542,0.00004314,-0.00223565,0.00281678,-0.00001592,-0
 .00060059,0.00007451,-0.00017410,0.00207598,-0.00556844,-0.00002486,0.
 00101181,-0.00038076,0.00000129,-0.00001921,0.00000243,0.00005765,-0.0
 0045543,0.00058460,-0.00004445,-0.00297012,-0.00106235,0.00157595,0.24
 704286,0.00006923,0.00004549,0.00130323,-0.00003743,0.00039648,-0.0018
 7661,0.00003374,-0.00013335,0.00019163,-0.00001049,-0.00007165,0.00026
 498,-0.00000539,0.00016747,0.00012966,-0.00001928,0.00021164,0.0001505
 1,-0.00071393,0.00687558,0.00865868,-0.00076015,-0.02387803,-0.0071964
 1,-0.00000827,-0.00001334,0.00009206,-0.00001200,-0.00002296,0.0000403
 7,0.00000365,-0.00006755,-0.00002236,0.00002687,0.00009067,-0.00002406
 ,-0.00138381,-0.00950233,-0.12836365,-0.00076809,-0.01381422,-0.034468
 67,-0.00065933,0.03220540,-0.02445247,-0.00229134,0.03169785,-0.084380
 21,-0.00042086,-0.00676250,-0.00276289,0.00024252,-0.00537613,0.012510
 72,0.00024624,0.00220847,0.00166222,-0.00003016,0.00095849,-0.00041708
 ,-0.00036637,-0.00235858,-0.00275833,0.00011261,-0.00010798,0.00046677
 ,-0.00000957,0.00000908,0.00017174,0.00001286,-0.00080757,0.00047462,-
 0.00009286,0.00106235,0.00353449,0.00714685,-0.02029028,0.26464295,-0.
 00029999,0.00005980,-0.00016469,-0.00036994,-0.00023196,-0.00022143,0.
 00014471,0.00028055,0.00005507,0.00006139,-0.00008430,-0.00016861,0.00
 002244,-0.00006644,0.00011513,0.00004556,0.00008123,-0.00003954,0.0011
 1347,-0.00001911,-0.00080504,-0.00031971,0.00006704,0.00095680,-0.0000
 3212,-0.00000308,-0.00001038,-0.00002747,0.00001285,-0.00000298,-0.000
 02002,0.00001561,0.00000411,-0.00004323,-0.00000957,0.00000952,0.01314
 520,0.00131138,-0.00945465,-0.07089718,-0.02226460,-0.07704989,0.01795
 307,-0.00589391,-0.00836360,0.00323216,-0.00122945,0.00130148,-0.00025
 087,0.00145032,-0.00050326,-0.00142450,0.00009519,-0.00021020,-0.00085
 898,-0.00033177,-0.00022821,-0.00001951,-0.00005639,0.00024283,0.00008
 767,0.00003668,0.00017534,-0.00027190,-0.00005450,-0.00006998,0.000024
 80,-0.00005830,0.00000666,0.00017757,-0.00002967,0.00000120,-0.0006862
 2,0.00053486,-0.00032300,0.00171798,0.00089332,-0.00062826,0.03667351,
 -0.00002924,-0.00059463,0.00091552,-0.00010792,-0.00009921,-0.00047200
 ,0.00002520,-0.00025555,0.00011557,-0.00000043,-0.00002250,0.00013133,
 -0.00001684,0.00006229,0.00016337,-0.00002427,0.00014328,0.00025136,0.
 00090726,0.00204830,-0.00464011,-0.00025967,0.00004646,-0.00182111,-0.
 00002355,-0.00004884,0.00005462,-0.00000506,-0.00001588,0.00003178,0.0
 0000205,-0.00005052,-0.00000967,0.00001848,0.00014843,0.00002082,0.001
 17491,0.02374325,0.01158777,-0.02112508,-0.13460219,-0.14421297,-0.006
 17284,-0.01339121,-0.05341111,-0.00019904,-0.01286443,0.00543831,-0.00
 018113,0.00469348,-0.00134769,-0.00005067,0.00097455,-0.00290496,0.000
 02557,0.00040914,-0.00251790,-0.00003114,0.00062165,-0.00037678,-0.000
 02705,-0.00087387,0.00036859,0.00000421,-0.00092592,-0.00051379,-0.000
 01735,-0.00010821,0.00007276,-0.00000751,-0.00004651,-0.00014205,0.000
 13211,0.00025964,-0.00043414,0.00049475,0.00298649,0.00684333,0.023535
 79,0.14038636,-0.00015386,-0.00100582,0.00175707,0.00014773,-0.0033430
 1,-0.00264891,0.00000502,0.00186516,0.00078384,-0.00000257,-0.00069763
 ,-0.00113425,-0.00005007,-0.00025204,0.00122102,0.00000962,0.00093782,
 -0.00006800,0.00109659,-0.00112385,-0.01042201,-0.00030119,-0.00887397
 ,0.00591931,0.00000104,-0.00012192,0.00002949,0.00000448,0.00012539,0.
 00001651,0.00000269,0.00008679,0.00003687,-0.00002722,0.00012239,0.000
 05915,-0.00988437,0.02923428,-0.06991255,-0.07765732,-0.16160780,-0.64
 334612,-0.00823817,-0.04911569,-0.03732273,0.00023636,-0.00588887,0.01
 218722,0.00003020,0.01136648,-0.00498802,0.00025047,0.00065468,-0.0002
 6904,0.00002182,-0.00401586,-0.00236862,-0.00004936,-0.00172310,0.0019
 5080,0.00001954,-0.00015531,0.00212359,0.00002639,-0.00016648,-0.00045
 501,-0.00001268,-0.00041178,-0.00005268,-0.00002191,-0.00013156,0.0002
 1160,0.00038235,0.00514863,-0.00461315,0.00045335,0.00724792,-0.002958
 71,0.09454332,0.18432716,0.74501298,0.01795307,-0.00589391,0.00836360,
 0.00323216,-0.00122945,-0.00130148,-0.00142450,0.00009519,0.00021020,0
 .00008767,0.00003668,-0.00017534,-0.00085898,-0.00033177,0.00022821,-0
 .00025087,0.00145032,0.00050326,-0.07089718,-0.02226460,0.07704989,0.0
 1314520,0.00131138,0.00945465,-0.00027190,-0.00005450,0.00006998,0.000
 17757,-0.00002967,-0.00000120,0.00002480,-0.00005830,-0.00000666,-0.00
 001951,-0.00005639,-0.00024283,-0.00031971,0.00006704,-0.00095680,0.00
 111347,-0.00001911,0.00080504,-0.00029999,0.00005980,0.00016469,-0.000
 36994,-0.00023196,0.00022143,0.00004556,0.00008123,0.00003954,0.000144
 71,0.00028055,-0.00005507,0.00002244,-0.00006644,-0.00011513,-0.000043
 23,-0.00000957,-0.00000952,0.00006139,-0.00008430,0.00016861,-0.000032
 12,-0.00000308,0.00001038,-0.00002002,0.00001561,-0.00000411,-0.000027
 47,0.00001285,0.00000298,0.00171798,0.00089332,0.00062826,-0.00068622,
 0.00053486,0.00032300,0.00112208,0.00195845,-0.00083227,0.03667351,-0.
 00617284,-0.01339121,0.05341111,-0.00019904,-0.01286443,-0.00543831,-0
 .00005067,0.00097455,0.00290496,-0.00002705,-0.00087387,-0.00036859,0.
 00002557,0.00040914,0.00251790,-0.00018113,0.00469348,0.00134769,-0.02
 112508,-0.13460219,0.14421297,0.00117491,0.02374325,-0.01158777,0.0000
 0421,-0.00092592,0.00051379,-0.00000751,-0.00004651,0.00014205,-0.0000
 1735,-0.00010821,-0.00007276,-0.00003114,0.00062165,0.00037678,-0.0002
 5967,0.00004646,0.00182111,0.00090726,0.00204830,0.00464011,-0.0000292
 4,-0.00059463,-0.00091552,-0.00010792,-0.00009921,0.00047200,-0.000024
 27,0.00014328,-0.00025136,0.00002520,-0.00025555,-0.00011557,-0.000016
 84,0.00006229,-0.00016337,0.00001848,0.00014843,-0.00002082,-0.0000004
 3,-0.00002250,-0.00013133,-0.00002355,-0.00004884,-0.00005462,0.000002
 05,-0.00005052,0.00000967,-0.00000506,-0.00001588,-0.00003178,0.000494
 75,0.00298649,-0.00684333,0.00013211,0.00025964,0.00043414,0.00195845,
 -0.01262385,-0.00248200,0.02353579,0.14038636,0.00823817,0.04911569,-0
 .03732273,-0.00023636,0.00588887,0.01218722,-0.00025047,-0.00065468,-0
 .00026904,-0.00001954,0.00015531,0.00212359,-0.00002182,0.00401586,-0.
 00236862,-0.00003020,-0.01136648,-0.00498802,0.07765732,0.16160780,-0.
 64334612,0.00988437,-0.02923428,-0.06991255,-0.00002639,0.00016648,-0.
 00045501,0.00002191,0.00013156,0.00021160,0.00001268,0.00041178,-0.000
 05268,0.00004936,0.00172310,0.00195080,0.00030119,0.00887397,0.0059193
 1,-0.00109659,0.00112385,-0.01042201,0.00015386,0.00100582,0.00175707,
 -0.00014773,0.00334301,-0.00264891,-0.00000962,-0.00093782,-0.00006800
 ,-0.00000502,-0.00186516,0.00078384,0.00005007,0.00025204,0.00122102,0
 .00002722,-0.00012239,0.00005915,0.00000257,0.00069763,-0.00113425,-0.
 00000104,0.00012192,0.00002949,-0.00000269,-0.00008679,0.00003687,-0.0
 0000448,-0.00012539,0.00001651,-0.00045335,-0.00724792,-0.00295871,-0.
 00038235,-0.00514863,-0.00461315,0.00083227,0.00248200,0.00925036,-0.0
 9454332,-0.18432716,0.74501298\\-0.00000010,-0.00000005,0.00000008,-0.
 00000010,-0.00000004,0.00000010,-0.00000013,0.00000005,-0.00000001,-0.
 00000019,-0.00000002,-0.00000015,-0.00000015,-0.00000010,0.00000015,-0
 .00000014,0.00000016,-0.00000013,-0.00000004,0.00000013,0.00000017,-0.
 00000001,-0.00000019,-0.00000011,-0.00000014,0.,-0.00000001,-0.0000001
 8,0.00000002,0.00000002,-0.00000019,0.00000001,-0.00000003,-0.00000012
 ,-0.00000004,0.00000003,0.00000001,0.00000019,-0.00000011,0.00000004,-
 0.00000013,0.00000017,0.00000010,0.00000005,0.00000008,0.00000010,0.00
 000004,0.00000010,0.00000014,-0.00000016,-0.00000013,0.00000013,-0.000
 00005,-0.00000001,0.00000015,0.00000010,0.00000015,0.00000012,0.000000
 04,0.00000003,0.00000019,0.00000002,-0.00000015,0.00000014,0.,-0.00000
 001,0.00000019,-0.00000001,-0.00000003,0.00000018,-0.00000002,0.000000
 02,-0.00000003,0.00000004,-0.00000006,0.00000003,-0.00000004,-0.000000
 06,0.00000004,0.,-0.00000003,-0.00000004,0.,-0.00000003\\\@


 IT IS BY EATING THE LIGHT OF A STAR THAT WE EXIST, 
 IN THE FINAL ANALYSIS, 
 JUST AS IT IS BY PERCEIVING THE LIGHT OF STARS
 THAT WE DEFINE THE WORLD AROUND US.

                                    -- GILBERT GROSVENOR
 Job cpu time:       0 days  6 hours  3 minutes 11.3 seconds.
 File lengths (MBytes):  RWF=    311 Int=      0 D2E=      0 Chk=    104 Scr=      1
 Normal termination of Gaussian 03 at Tue Feb 24 09:23:06 2015.
