 Entering Gaussian System, Link 0=g09
 Entering Gaussian System, Link 0=/usr/software/gaussian/g09.revD01/g09
 Initial command:
 /usr/software/gaussian/g09.revD01/l1.exe "/scr/mpark/Gr_Trans_hi_basis/Gau-13561.inp" -scrdir="/scr/mpark/Gr_Trans_hi_basis/"
 Entering Link 1 = /usr/software/gaussian/g09.revD01/l1.exe PID=     13562.
  
 Copyright (c) 1988,1990,1992,1993,1995,1998,2003,2009,2013,
            Gaussian, Inc.  All Rights Reserved.
  
 This is part of the Gaussian(R) 09 program.  It is based on
 the Gaussian(R) 03 system (copyright 2003, Gaussian, Inc.),
 the Gaussian(R) 98 system (copyright 1998, Gaussian, Inc.),
 the Gaussian(R) 94 system (copyright 1995, Gaussian, Inc.),
 the Gaussian 92(TM) system (copyright 1992, Gaussian, Inc.),
 the Gaussian 90(TM) system (copyright 1990, Gaussian, Inc.),
 the Gaussian 88(TM) system (copyright 1988, Gaussian, Inc.),
 the Gaussian 86(TM) system (copyright 1986, Carnegie Mellon
 University), and the Gaussian 82(TM) system (copyright 1983,
 Carnegie Mellon University). Gaussian is a federally registered
 trademark of Gaussian, Inc.
  
 This software contains proprietary and confidential information,
 including trade secrets, belonging to Gaussian, Inc.
  
 This software is provided under written license and may be
 used, copied, transmitted, or stored only in accord with that
 written license.
  
 The following legend is applicable only to US Government
 contracts under FAR:
  
                    RESTRICTED RIGHTS LEGEND
  
 Use, reproduction and disclosure by the US Government is
 subject to restrictions as set forth in subparagraphs (a)
 and (c) of the Commercial Computer Software - Restricted
 Rights clause in FAR 52.227-19.
  
 Gaussian, Inc.
 340 Quinnipiac St., Bldg. 40, Wallingford CT 06492
  
  
 ---------------------------------------------------------------
 Warning -- This program may not be used in any manner that
 competes with the business of Gaussian, Inc. or will provide
 assistance to any competitor of Gaussian, Inc.  The licensee
 of this program is prohibited from giving any competitor of
 Gaussian, Inc. access to this program.  By using this program,
 the user acknowledges that Gaussian, Inc. is engaged in the
 business of creating and licensing software in the field of
 computational chemistry and represents and warrants to the
 licensee that it is not a competitor of Gaussian, Inc. and that
 it will not use this program in any manner prohibited above.
 ---------------------------------------------------------------
  

 Cite this work as:
 Gaussian 03, Revision D.01,
 M. J. Frisch, G. W. Trucks, H. B. Schlegel, G. E. Scuseria, 
 M. A. Robb, J. R. Cheeseman, G. Scalmani, V. Barone, B. Mennucci, 
 G. A. Petersson, H. Nakatsuji, M. Caricato, X. Li, H. P. Hratchian, 
 A. F. Izmaylov, J. Bloino, G. Zheng, J. L. Sonnenberg, M. Hada, 
 M. Ehara, K. Toyota, R. Fukuda, J. Hasegawa, M. Ishida, T. Nakajima, 
 Y. Honda, O. Kitao, H. Nakai, T. Vreven, J. A. Montgomery, Jr., 
 J. E. Peralta, F. Ogliaro, M. Bearpark, J. J. Heyd, E. Brothers, 
 K. N. Kudin, V. N. Staroverov, T. Keith, R. Kobayashi, J. Normand, 
 K. Raghavachari, A. Rendell, J. C. Burant, S. S. Iyengar, J. Tomasi, 
 M. Cossi, N. Rega, J. M. Millam, M. Klene, J. E. Knox, J. B. Cross, 
 V. Bakken, C. Adamo, J. Jaramillo, R. Gomperts, R. E. Stratmann, 
 O. Yazyev, A. J. Austin, R. Cammi, C. Pomelli, J. W. Ochterski, 
 R. L. Martin, K. Morokuma, V. G. Zakrzewski, G. A. Voth, 
 P. Salvador, J. J. Dannenberg, S. Dapprich, A. D. Daniels, 
 O. Farkas, J. B. Foresman, J. V. Ortiz, J. Cioslowski, 
 and D. J. Fox, Gaussian, Inc., Wallingford CT, 2013.
 
 ******************************************
 Gaussian 03:  AM64L-G09RevD.01 24-Apr-2013
                24-Feb-2015 
 ******************************************
 %nprocshared=12
 Will use up to   12 processors via shared memory.
 %mem=30GB
 %chk=Gr_Trans_again.chk
 ----------------------------------------------------------------------
 #p opt=tight freq=raman rb3lyp/6-31+g(d) guess=read geom=connectivity 
 int=ultrafine
 ----------------------------------------------------------------------
 1/7=10,14=-1,18=20,19=15,26=4,38=1,57=2/1,3;
 2/9=110,12=2,17=6,18=5,40=1/2;
 3/5=1,6=6,7=11,11=2,16=1,25=1,30=1,71=1,74=-5,75=-5,116=1/1,2,3;
 4/5=1/1;
 5/5=2,38=6/2;
 6/7=2,8=2,9=2,10=2,28=1/1;
 7//1,2,3,16;
 1/7=10,14=-1,18=20,19=15,26=4/3(2);
 2/9=110/2;
 99//99;
 2/9=110/2;
 3/5=1,6=6,7=11,11=2,16=1,25=1,30=1,71=1,74=-5,75=-5,116=1/1,2,3;
 4/5=5,16=3,69=1/1;
 5/5=2,38=5/2;
 7//1,2,3,16;
 1/7=10,14=-1,18=20,19=15,26=4/3(-5);
 2/9=110/2;
 6/7=2,8=2,9=2,10=2,19=2,28=1/1;
 99/9=1/99;
 Leave Link    1 at Tue Feb 24 10:58:39 2015, MaxMem=  4026531840 cpu:         0.8
 (Enter /usr/software/gaussian/g09.revD01/l101.exe)
 -------------------
 Title Card Required
 -------------------
 Symbolic Z-matrix:
 Charge =  0 Multiplicity = 1
 C                    -0.63137   2.99894   0.00001 
 C                     0.75031   3.09903   0.00001 
 C                     1.36516   4.34271  0. 
 C                     0.56266   5.47223  -0.00001 
 C                    -0.82961   5.37743  -0.00001 
 C                    -1.43302   4.13438  0. 
 C                    -1.10564   1.60572   0.00002 
 C                     0.06928   0.66247   0.00001 
 H                     2.43629   4.43231   0. 
 H                     1.02533   6.44315  -0.00002 
 H                    -1.42698   6.27062  -0.00002 
 H                    -2.50256   4.02924  0. 
 C                    -0.06928  -0.66247   0.00001 
 C                     1.10564  -1.60572   0.00001 
 C                     0.63137  -2.99894   0. 
 C                    -0.75031  -3.09903   0.00001 
 C                     1.43302  -4.13438  0. 
 C                    -1.36516  -4.34271  0. 
 C                     0.82961  -5.37743  -0.00001 
 H                     2.50256  -4.02924  0. 
 C                    -0.56266  -5.47223  -0.00001 
 H                    -2.43629  -4.43231   0. 
 H                     1.42698  -6.27062  -0.00002 
 H                    -1.02533  -6.44315  -0.00001 
 S                     1.60256   1.54468   0.00002 
 S                    -1.60256  -1.54468   0.00001 
 O                     2.24128  -1.23524   0.00001 
 O                    -2.24128   1.23524   0.00001 
 
 NAtoms=     28 NQM=       28 NQMF=       0 NMMI=      0 NMMIF=      0
                NMic=       0 NMicF=      0.
                    Isotopes and Nuclear Properties:
 (Nuclear quadrupole moments (NQMom) in fm**2, nuclear magnetic moments (NMagM)
  in nuclear magnetons)

  Atom         1           2           3           4           5           6           7           8           9          10
 IAtWgt=          12          12          12          12          12          12          12          12           1           1
 AtmWgt=  12.0000000  12.0000000  12.0000000  12.0000000  12.0000000  12.0000000  12.0000000  12.0000000   1.0078250   1.0078250
 NucSpn=           0           0           0           0           0           0           0           0           1           1
 AtZEff=   0.0000000   0.0000000   0.0000000   0.0000000   0.0000000   0.0000000   0.0000000   0.0000000   0.0000000   0.0000000
 NQMom=    0.0000000   0.0000000   0.0000000   0.0000000   0.0000000   0.0000000   0.0000000   0.0000000   0.0000000   0.0000000
 NMagM=    0.0000000   0.0000000   0.0000000   0.0000000   0.0000000   0.0000000   0.0000000   0.0000000   2.7928460   2.7928460
 AtZNuc=   6.0000000   6.0000000   6.0000000   6.0000000   6.0000000   6.0000000   6.0000000   6.0000000   1.0000000   1.0000000

  Atom        11          12          13          14          15          16          17          18          19          20
 IAtWgt=           1           1          12          12          12          12          12          12          12           1
 AtmWgt=   1.0078250   1.0078250  12.0000000  12.0000000  12.0000000  12.0000000  12.0000000  12.0000000  12.0000000   1.0078250
 NucSpn=           1           1           0           0           0           0           0           0           0           1
 AtZEff=   0.0000000   0.0000000   0.0000000   0.0000000   0.0000000   0.0000000   0.0000000   0.0000000   0.0000000   0.0000000
 NQMom=    0.0000000   0.0000000   0.0000000   0.0000000   0.0000000   0.0000000   0.0000000   0.0000000   0.0000000   0.0000000
 NMagM=    2.7928460   2.7928460   0.0000000   0.0000000   0.0000000   0.0000000   0.0000000   0.0000000   0.0000000   2.7928460
 AtZNuc=   1.0000000   1.0000000   6.0000000   6.0000000   6.0000000   6.0000000   6.0000000   6.0000000   6.0000000   1.0000000

  Atom        21          22          23          24          25          26          27          28
 IAtWgt=          12           1           1           1          32          32          16          16
 AtmWgt=  12.0000000   1.0078250   1.0078250   1.0078250  31.9720718  31.9720718  15.9949146  15.9949146
 NucSpn=           0           1           1           1           0           0           0           0
 AtZEff=   0.0000000   0.0000000   0.0000000   0.0000000   0.0000000   0.0000000   0.0000000   0.0000000
 NQMom=    0.0000000   0.0000000   0.0000000   0.0000000   0.0000000   0.0000000   0.0000000   0.0000000
 NMagM=    0.0000000   2.7928460   2.7928460   2.7928460   0.0000000   0.0000000   0.0000000   0.0000000
 AtZNuc=   6.0000000   1.0000000   1.0000000   1.0000000  16.0000000  16.0000000   8.0000000   8.0000000
 Leave Link  101 at Tue Feb 24 10:58:40 2015, MaxMem=  4026531840 cpu:        10.1
 (Enter /usr/software/gaussian/g09.revD01/l103.exe)

 GradGradGradGradGradGradGradGradGradGradGradGradGradGradGradGradGradGrad
 Berny optimization.
 Initialization pass.
                           ----------------------------
                           !    Initial Parameters    !
                           ! (Angstroms and Degrees)  !
 --------------------------                            --------------------------
 ! Name  Definition              Value          Derivative Info.                !
 --------------------------------------------------------------------------------
 ! R1    R(1,2)                  1.3853         estimate D2E/DX2                !
 ! R2    R(1,6)                  1.3899         estimate D2E/DX2                !
 ! R3    R(1,7)                  1.4717         estimate D2E/DX2                !
 ! R4    R(2,3)                  1.3874         estimate D2E/DX2                !
 ! R5    R(2,25)                 1.7727         estimate D2E/DX2                !
 ! R6    R(3,4)                  1.3856         estimate D2E/DX2                !
 ! R7    R(3,9)                  1.0749         estimate D2E/DX2                !
 ! R8    R(4,5)                  1.3955         estimate D2E/DX2                !
 ! R9    R(4,10)                 1.0755         estimate D2E/DX2                !
 ! R10   R(5,6)                  1.3818         estimate D2E/DX2                !
 ! R11   R(5,11)                 1.0745         estimate D2E/DX2                !
 ! R12   R(6,12)                 1.0747         estimate D2E/DX2                !
 ! R13   R(7,8)                  1.5067         estimate D2E/DX2                !
 ! R14   R(7,28)                 1.1945         estimate D2E/DX2                !
 ! R15   R(8,13)                 1.3322         estimate D2E/DX2                !
 ! R16   R(8,25)                 1.769          estimate D2E/DX2                !
 ! R17   R(13,14)                1.5067         estimate D2E/DX2                !
 ! R18   R(13,26)                1.769          estimate D2E/DX2                !
 ! R19   R(14,15)                1.4717         estimate D2E/DX2                !
 ! R20   R(14,27)                1.1945         estimate D2E/DX2                !
 ! R21   R(15,16)                1.3853         estimate D2E/DX2                !
 ! R22   R(15,17)                1.3899         estimate D2E/DX2                !
 ! R23   R(16,18)                1.3874         estimate D2E/DX2                !
 ! R24   R(16,26)                1.7727         estimate D2E/DX2                !
 ! R25   R(17,19)                1.3818         estimate D2E/DX2                !
 ! R26   R(17,20)                1.0747         estimate D2E/DX2                !
 ! R27   R(18,21)                1.3856         estimate D2E/DX2                !
 ! R28   R(18,22)                1.0749         estimate D2E/DX2                !
 ! R29   R(19,21)                1.3955         estimate D2E/DX2                !
 ! R30   R(19,23)                1.0745         estimate D2E/DX2                !
 ! R31   R(21,24)                1.0755         estimate D2E/DX2                !
 ! A1    A(2,1,6)              121.08           estimate D2E/DX2                !
 ! A2    A(2,1,7)              112.9426         estimate D2E/DX2                !
 ! A3    A(6,1,7)              125.9774         estimate D2E/DX2                !
 ! A4    A(1,2,3)              120.4504         estimate D2E/DX2                !
 ! A5    A(1,2,25)             114.5929         estimate D2E/DX2                !
 ! A6    A(3,2,25)             124.9567         estimate D2E/DX2                !
 ! A7    A(2,3,4)              118.2999         estimate D2E/DX2                !
 ! A8    A(2,3,9)              121.0888         estimate D2E/DX2                !
 ! A9    A(4,3,9)              120.6113         estimate D2E/DX2                !
 ! A10   A(3,4,5)              121.4975         estimate D2E/DX2                !
 ! A11   A(3,4,10)             119.1277         estimate D2E/DX2                !
 ! A12   A(5,4,10)             119.3748         estimate D2E/DX2                !
 ! A13   A(4,5,6)              119.7887         estimate D2E/DX2                !
 ! A14   A(4,5,11)             119.8791         estimate D2E/DX2                !
 ! A15   A(6,5,11)             120.3322         estimate D2E/DX2                !
 ! A16   A(1,6,5)              118.8835         estimate D2E/DX2                !
 ! A17   A(1,6,12)             119.6093         estimate D2E/DX2                !
 ! A18   A(5,6,12)             121.5072         estimate D2E/DX2                !
 ! A19   A(1,7,8)              109.9591         estimate D2E/DX2                !
 ! A20   A(1,7,28)             126.8671         estimate D2E/DX2                !
 ! A21   A(8,7,28)             123.1738         estimate D2E/DX2                !
 ! A22   A(7,8,13)             122.7885         estimate D2E/DX2                !
 ! A23   A(7,8,25)             111.3269         estimate D2E/DX2                !
 ! A24   A(13,8,25)            125.8845         estimate D2E/DX2                !
 ! A25   A(8,13,14)            122.7885         estimate D2E/DX2                !
 ! A26   A(8,13,26)            125.8845         estimate D2E/DX2                !
 ! A27   A(14,13,26)           111.3269         estimate D2E/DX2                !
 ! A28   A(13,14,15)           109.9591         estimate D2E/DX2                !
 ! A29   A(13,14,27)           123.1738         estimate D2E/DX2                !
 ! A30   A(15,14,27)           126.8671         estimate D2E/DX2                !
 ! A31   A(14,15,16)           112.9426         estimate D2E/DX2                !
 ! A32   A(14,15,17)           125.9774         estimate D2E/DX2                !
 ! A33   A(16,15,17)           121.08           estimate D2E/DX2                !
 ! A34   A(15,16,18)           120.4504         estimate D2E/DX2                !
 ! A35   A(15,16,26)           114.5929         estimate D2E/DX2                !
 ! A36   A(18,16,26)           124.9567         estimate D2E/DX2                !
 ! A37   A(15,17,19)           118.8835         estimate D2E/DX2                !
 ! A38   A(15,17,20)           119.6093         estimate D2E/DX2                !
 ! A39   A(19,17,20)           121.5072         estimate D2E/DX2                !
 ! A40   A(16,18,21)           118.2999         estimate D2E/DX2                !
 ! A41   A(16,18,22)           121.0888         estimate D2E/DX2                !
 ! A42   A(21,18,22)           120.6113         estimate D2E/DX2                !
 ! A43   A(17,19,21)           119.7887         estimate D2E/DX2                !
 ! A44   A(17,19,23)           120.3322         estimate D2E/DX2                !
 ! A45   A(21,19,23)           119.8791         estimate D2E/DX2                !
 ! A46   A(18,21,19)           121.4975         estimate D2E/DX2                !
 ! A47   A(18,21,24)           119.1277         estimate D2E/DX2                !
 ! A48   A(19,21,24)           119.3748         estimate D2E/DX2                !
 ! A49   A(2,25,8)              91.1785         estimate D2E/DX2                !
 ! A50   A(13,26,16)            91.1785         estimate D2E/DX2                !
 ! D1    D(6,1,2,3)              0.0001         estimate D2E/DX2                !
 ! D2    D(6,1,2,25)          -179.9999         estimate D2E/DX2                !
 ! D3    D(7,1,2,3)           -179.9999         estimate D2E/DX2                !
 ! D4    D(7,1,2,25)             0.0001         estimate D2E/DX2                !
 ! D5    D(2,1,6,5)              0.0            estimate D2E/DX2                !
 ! D6    D(2,1,6,12)           179.9999         estimate D2E/DX2                !
 ! D7    D(7,1,6,5)            180.0            estimate D2E/DX2                !
 ! D8    D(7,1,6,12)            -0.0001         estimate D2E/DX2                !
 ! D9    D(2,1,7,8)             -0.0004         estimate D2E/DX2                !
 ! D10   D(2,1,7,28)          -179.9993         estimate D2E/DX2                !
 ! D11   D(6,1,7,8)            179.9996         estimate D2E/DX2                !
 ! D12   D(6,1,7,28)             0.0007         estimate D2E/DX2                !
 ! D13   D(1,2,3,4)             -0.0001         estimate D2E/DX2                !
 ! D14   D(1,2,3,9)            179.9999         estimate D2E/DX2                !
 ! D15   D(25,2,3,4)           180.0            estimate D2E/DX2                !
 ! D16   D(25,2,3,9)             0.0            estimate D2E/DX2                !
 ! D17   D(1,2,25,8)             0.0002         estimate D2E/DX2                !
 ! D18   D(3,2,25,8)          -179.9998         estimate D2E/DX2                !
 ! D19   D(2,3,4,5)              0.0            estimate D2E/DX2                !
 ! D20   D(2,3,4,10)          -180.0            estimate D2E/DX2                !
 ! D21   D(9,3,4,5)            180.0            estimate D2E/DX2                !
 ! D22   D(9,3,4,10)             0.0            estimate D2E/DX2                !
 ! D23   D(3,4,5,6)              0.0001         estimate D2E/DX2                !
 ! D24   D(3,4,5,11)           180.0            estimate D2E/DX2                !
 ! D25   D(10,4,5,6)          -180.0            estimate D2E/DX2                !
 ! D26   D(10,4,5,11)           -0.0001         estimate D2E/DX2                !
 ! D27   D(4,5,6,1)              0.0            estimate D2E/DX2                !
 ! D28   D(4,5,6,12)           180.0            estimate D2E/DX2                !
 ! D29   D(11,5,6,1)          -179.9999         estimate D2E/DX2                !
 ! D30   D(11,5,6,12)            0.0001         estimate D2E/DX2                !
 ! D31   D(1,7,8,13)          -179.9996         estimate D2E/DX2                !
 ! D32   D(1,7,8,25)             0.0005         estimate D2E/DX2                !
 ! D33   D(28,7,8,13)           -0.0006         estimate D2E/DX2                !
 ! D34   D(28,7,8,25)          179.9995         estimate D2E/DX2                !
 ! D35   D(7,8,13,14)         -179.9999         estimate D2E/DX2                !
 ! D36   D(7,8,13,26)            0.0            estimate D2E/DX2                !
 ! D37   D(25,8,13,14)           0.0            estimate D2E/DX2                !
 ! D38   D(25,8,13,26)         179.9999         estimate D2E/DX2                !
 ! D39   D(7,8,25,2)            -0.0004         estimate D2E/DX2                !
 ! D40   D(13,8,25,2)          179.9997         estimate D2E/DX2                !
 ! D41   D(8,13,14,15)        -179.9997         estimate D2E/DX2                !
 ! D42   D(8,13,14,27)          -0.0005         estimate D2E/DX2                !
 ! D43   D(26,13,14,15)          0.0004         estimate D2E/DX2                !
 ! D44   D(26,13,14,27)        179.9996         estimate D2E/DX2                !
 ! D45   D(8,13,26,16)         179.9998         estimate D2E/DX2                !
 ! D46   D(14,13,26,16)         -0.0003         estimate D2E/DX2                !
 ! D47   D(13,14,15,16)         -0.0003         estimate D2E/DX2                !
 ! D48   D(13,14,15,17)        179.9997         estimate D2E/DX2                !
 ! D49   D(27,14,15,16)       -179.9995         estimate D2E/DX2                !
 ! D50   D(27,14,15,17)          0.0006         estimate D2E/DX2                !
 ! D51   D(14,15,16,18)       -179.9999         estimate D2E/DX2                !
 ! D52   D(14,15,16,26)          0.0001         estimate D2E/DX2                !
 ! D53   D(17,15,16,18)          0.0            estimate D2E/DX2                !
 ! D54   D(17,15,16,26)       -179.9999         estimate D2E/DX2                !
 ! D55   D(14,15,17,19)        179.9999         estimate D2E/DX2                !
 ! D56   D(14,15,17,20)          0.0            estimate D2E/DX2                !
 ! D57   D(16,15,17,19)          0.0            estimate D2E/DX2                !
 ! D58   D(16,15,17,20)       -180.0            estimate D2E/DX2                !
 ! D59   D(15,16,18,21)          0.0            estimate D2E/DX2                !
 ! D60   D(15,16,18,22)        180.0            estimate D2E/DX2                !
 ! D61   D(26,16,18,21)        179.9999         estimate D2E/DX2                !
 ! D62   D(26,16,18,22)          0.0            estimate D2E/DX2                !
 ! D63   D(15,16,26,13)          0.0001         estimate D2E/DX2                !
 ! D64   D(18,16,26,13)       -179.9999         estimate D2E/DX2                !
 ! D65   D(15,17,19,21)          0.0            estimate D2E/DX2                !
 ! D66   D(15,17,19,23)       -180.0            estimate D2E/DX2                !
 ! D67   D(20,17,19,21)        180.0            estimate D2E/DX2                !
 ! D68   D(20,17,19,23)         -0.0001         estimate D2E/DX2                !
 ! D69   D(16,18,21,19)          0.0001         estimate D2E/DX2                !
 ! D70   D(16,18,21,24)       -180.0            estimate D2E/DX2                !
 ! D71   D(22,18,21,19)       -180.0            estimate D2E/DX2                !
 ! D72   D(22,18,21,24)          0.0            estimate D2E/DX2                !
 ! D73   D(17,19,21,18)         -0.0001         estimate D2E/DX2                !
 ! D74   D(17,19,21,24)        180.0            estimate D2E/DX2                !
 ! D75   D(23,19,21,18)        180.0            estimate D2E/DX2                !
 ! D76   D(23,19,21,24)          0.0            estimate D2E/DX2                !
 --------------------------------------------------------------------------------
 Trust Radius=3.00D-01 FncErr=1.00D-07 GrdErr=1.00D-06
 Number of steps in this run=    167 maximum allowed number of steps=    168.
 GradGradGradGradGradGradGradGradGradGradGradGradGradGradGradGradGradGrad

 Leave Link  103 at Tue Feb 24 10:58:40 2015, MaxMem=  4026531840 cpu:         0.2
 (Enter /usr/software/gaussian/g09.revD01/l202.exe)
                          Input orientation:                          
 ---------------------------------------------------------------------
 Center     Atomic      Atomic             Coordinates (Angstroms)
 Number     Number       Type             X           Y           Z
 ---------------------------------------------------------------------
      1          6           0       -0.631366    2.998938    0.000006
      2          6           0        0.750305    3.099027    0.000006
      3          6           0        1.365161    4.342707   -0.000001
      4          6           0        0.562656    5.472232   -0.000009
      5          6           0       -0.829610    5.377427   -0.000011
      6          6           0       -1.433021    4.134375   -0.000003
      7          6           0       -1.105637    1.605722    0.000016
      8          6           0        0.069276    0.662472    0.000014
      9          1           0        2.436293    4.432309    0.000000
     10          1           0        1.025327    6.443146   -0.000015
     11          1           0       -1.426978    6.270622   -0.000017
     12          1           0       -2.502558    4.029241   -0.000004
     13          6           0       -0.069276   -0.662472    0.000013
     14          6           0        1.105637   -1.605722    0.000013
     15          6           0        0.631366   -2.998938    0.000004
     16          6           0       -0.750305   -3.099027    0.000005
     17          6           0        1.433021   -4.134375   -0.000004
     18          6           0       -1.365161   -4.342707   -0.000001
     19          6           0        0.829610   -5.377427   -0.000010
     20          1           0        2.502558   -4.029241   -0.000004
     21          6           0       -0.562656   -5.472232   -0.000009
     22          1           0       -2.436293   -4.432309    0.000000
     23          1           0        1.426978   -6.270622   -0.000016
     24          1           0       -1.025327   -6.443146   -0.000014
     25         16           0        1.602564    1.544675    0.000016
     26         16           0       -1.602564   -1.544675    0.000014
     27          8           0        2.241281   -1.235243    0.000005
     28          8           0       -2.241280    1.235243    0.000006
 ---------------------------------------------------------------------
                    Distance matrix (angstroms):
                    1          2          3          4          5
     1  C    0.000000
     2  C    1.385292   0.000000
     3  C    2.406623   1.387367   0.000000
     4  C    2.746429   2.380612   1.385583   0.000000
     5  C    2.386736   2.772587   2.426451   1.395490   0.000000
     6  C    1.389917   2.416373   2.805927   2.402621   1.381768
     7  C    1.471728   2.382117   3.687266   4.211069   3.781792
     8  C    2.439257   2.529941   3.901724   4.834999   4.799875
     9  H    3.386013   2.149464   1.074873   2.142885   3.399907
    10  H    3.821937   3.355409   2.127753   1.075518   2.139287
    11  H    3.367034   3.847022   3.393066   2.143845   1.074544
    12  H    2.136091   3.383255   3.880401   3.387884   2.148572
    13  C    3.704304   3.849752   5.206671   6.167166   6.087568
    14  C    4.921389   4.718148   5.954088   7.098751   7.246347
    15  C    6.129356   6.099125   7.378225   8.471449   8.502820
    16  C    6.099125   6.377123   7.736576   8.671237   8.476825
    17  C    7.426025   7.265549   8.477354   9.645954   9.777212
    18  C    7.378225   7.736576   9.104454  10.002475   9.734876
    19  C    8.502820   8.476825   9.734876  10.852943  10.882091
    20  H    7.695244   7.340477   8.448857   9.697485   9.979416
    21  C    8.471449   8.671237  10.002475  11.002164  10.852943
    22  H    7.647300   8.177740   9.563052  10.348605   9.940440
    23  H    9.495342   9.394052  10.613509  11.774620  11.864621
    24  H    9.450299   9.705974  11.047582  12.020729  11.822193
    25  S    2.665581   1.772669   2.808085   4.062895   4.539324
    26  S    4.646251   5.205762   6.593077   7.343375   6.965124
    27  O    5.116678   4.583547   5.646336   6.914333   7.290938
    28  O    2.387979   3.524666   4.760541   5.080761   4.376128
                    6          7          8          9         10
     6  C    0.000000
     7  C    2.549758   0.000000
     8  C    3.782989   1.506699   0.000000
     9  H    3.880767   4.531541   4.451341   0.000000
    10  H    3.372521   5.285989   5.859200   2.456479   0.000000
    11  H    2.136256   4.675955   5.804319   4.278348   2.458366
    12  H    1.074692   2.797290   4.236681   4.955271   4.274682
    13  C    4.986937   2.493742   1.332169   5.677558   7.189434
    14  C    6.276424   3.899116   2.493742   6.182917   8.049269
    15  C    7.426025   4.921389   3.704304   7.647300   9.450299
    16  C    7.265549   4.718148   3.849752   8.177740   9.705974
    17  C    8.751367   6.276424   4.986937   8.625232  10.585375
    18  C    8.477354   5.954088   5.206671   9.563052  11.047582
    19  C    9.777212   7.246347   6.087568   9.940440  11.822193
    20  H    9.062748   6.691179   5.285171   8.461809  10.576063
    21  C    9.645954   7.098751   6.167166  10.348605  12.020729
    22  H    8.625232   6.182917   5.677558  10.115510  11.413077
    23  H   10.790902   8.273508   7.064782  10.750416  12.720111
    24  H   10.585375   8.049269   7.189434  11.413077  13.048437
    25  S    3.990153   2.708889   1.768970   3.005584   4.932365
    26  S    5.681580   3.189348   2.768853   7.213647   8.408989
    27  O    6.506404   4.390096   2.884255   5.670906   7.774072
    28  O    3.009693   1.194546   2.380491   5.665767   6.147599
                   11         12         13         14         15
    11  H    0.000000
    12  H    2.486094   0.000000
    13  C    7.064782   5.285171   0.000000
    14  C    8.273508   6.691179   1.506699   0.000000
    15  C    9.495342   7.695244   2.439257   1.471728   0.000000
    16  C    9.394052   7.340477   2.529941   2.382117   1.385292
    17  C   10.790902   9.062748   3.782989   2.549758   1.389917
    18  C   10.613509   8.448857   3.901724   3.687266   2.406623
    19  C   11.864621   9.979416   4.799875   3.781792   2.386736
    20  H   11.023993   9.486323   4.236681   2.797290   2.136091
    21  C   11.774620   9.697485   4.834999   4.211069   2.746429
    22  H   10.750416   8.461809   4.451341   4.531541   3.386013
    23  H   12.861876  11.023993   5.804319   4.675955   3.367034
    24  H   12.720111  10.576063   5.859200   5.285989   3.821937
    25  S    5.613617   4.798447   2.768853   3.189348   4.646251
    26  S    7.817269   5.646107   1.768970   2.708889   2.665581
    27  O    8.354288   7.086522   2.380492   1.194547   2.387980
    28  O    5.100797   2.806188   2.884254   4.390095   5.116677
                   16         17         18         19         20
    16  C    0.000000
    17  C    2.416373   0.000000
    18  C    1.387367   2.805927   0.000000
    19  C    2.772587   1.381768   2.426451   0.000000
    20  H    3.383255   1.074692   3.880401   2.148572   0.000000
    21  C    2.380612   2.402621   1.385583   1.395490   3.387884
    22  H    2.149464   3.880767   1.074873   3.399907   4.955271
    23  H    3.847022   2.136256   3.393066   1.074544   2.486094
    24  H    3.355409   3.372521   2.127753   2.139287   4.274682
    25  S    5.205762   5.681580   6.593077   6.965124   5.646107
    26  S    1.772669   3.990153   2.808085   4.539324   4.798447
    27  O    3.524667   3.009693   4.760542   4.376129   2.806188
    28  O    4.583547   6.506403   5.646336   7.290938   7.086522
                   21         22         23         24         25
    21  C    0.000000
    22  H    2.142885   0.000000
    23  H    2.143845   4.278348   0.000000
    24  H    1.075518   2.456479   2.458366   0.000000
    25  S    7.343375   7.213647   7.817269   8.408989   0.000000
    26  S    4.062895   3.005584   5.613617   4.932365   4.451621
    27  O    5.080762   5.665768   5.100797   6.147600   2.852351
    28  O    6.914333   5.670906   8.354288   7.774072   3.856279
                   26         27         28
    26  S    0.000000
    27  O    3.856280   0.000000
    28  O    2.852350   5.118267   0.000000
 Stoichiometry    C16H8O2S2
 Framework group  C1[X(C16H8O2S2)]
 Deg. of freedom    78
 Full point group                 C1      NOp   1
 Largest Abelian subgroup         C1      NOp   1
 Largest concise Abelian subgroup C1      NOp   1
                         Standard orientation:                         
 ---------------------------------------------------------------------
 Center     Atomic      Atomic             Coordinates (Angstroms)
 Number     Number       Type             X           Y           Z
 ---------------------------------------------------------------------
      1          6           0        2.999132   -0.630442   -0.000002
      2          6           0        3.098796    0.751260   -0.000002
      3          6           0        4.342286    1.366499    0.000005
      4          6           0        5.472058    0.564342    0.000013
      5          6           0        5.377682   -0.827953    0.000015
      6          6           0        4.134816   -1.431747    0.000007
      7          6           0        1.606063   -1.105142   -0.000012
      8          6           0        0.662451    0.069480   -0.000010
      9          1           0        4.431558    2.437659    0.000004
     10          1           0        6.442830    1.027312    0.000019
     11          1           0        6.271061   -1.425046    0.000021
     12          1           0        4.030012   -2.501316    0.000008
     13          6           0       -0.662451   -0.069480   -0.000009
     14          6           0       -1.606063    1.105142   -0.000009
     15          6           0       -2.999132    0.630442    0.000000
     16          6           0       -3.098796   -0.751260   -0.000001
     17          6           0       -4.134816    1.431747    0.000008
     18          6           0       -4.342286   -1.366499    0.000005
     19          6           0       -5.377682    0.827953    0.000014
     20          1           0       -4.030012    2.501316    0.000008
     21          6           0       -5.472058   -0.564342    0.000013
     22          1           0       -4.431558   -2.437659    0.000004
     23          1           0       -6.271061    1.425045    0.000020
     24          1           0       -6.442830   -1.027313    0.000018
     25         16           0        1.544181    1.603040   -0.000012
     26         16           0       -1.544181   -1.603040   -0.000010
     27          8           0       -1.235934    2.240900   -0.000001
     28          8           0        1.235934   -2.240899   -0.000002
 ---------------------------------------------------------------------
 Rotational constants (GHZ):      0.9600890      0.1564187      0.1345050
 Leave Link  202 at Tue Feb 24 10:58:40 2015, MaxMem=  4026531840 cpu:         0.5
 (Enter /usr/software/gaussian/g09.revD01/l301.exe)
 Standard basis: 6-31+G(d) (6D, 7F)
 Ernie: Thresh=  0.10000D-02 Tol=  0.10000D-05 Strict=F.
 There are   404 symmetry adapted cartesian basis functions of A   symmetry.
 There are   404 symmetry adapted basis functions of A   symmetry.
   404 basis functions,   720 primitive gaussians,   404 cartesian basis functions
    76 alpha electrons       76 beta electrons
       nuclear repulsion energy      1646.7636192413 Hartrees.
 IExCor=  402 DFT=T Ex+Corr=B3LYP ExCW=0 ScaHFX=  0.200000
 ScaDFX=  0.800000  0.720000  1.000000  0.810000 ScalE2=  1.000000  1.000000
 IRadAn=      5 IRanWt=     -1 IRanGd=            0 ICorTp=0 IEmpDi=  4
 NAtoms=   28 NActive=   28 NUniq=   28 SFac= 1.00D+00 NAtFMM=   60 NAOKFM=F Big=F
 Integral buffers will be    131072 words long.
 Raffenetti 2 integral format.
 Two-electron integral symmetry is turned on.
 Leave Link  301 at Tue Feb 24 10:58:40 2015, MaxMem=  4026531840 cpu:         1.1
 (Enter /usr/software/gaussian/g09.revD01/l302.exe)
 NPDir=0 NMtPBC=     1 NCelOv=     1 NCel=       1 NClECP=     1 NCelD=      1
         NCelK=      1 NCelE2=     1 NClLst=     1 CellRange=     0.0.
 One-electron integrals computed using PRISM.
 NBasis=   404 RedAO= T EigKep=  1.62D-06  NBF=   404
 NBsUse=   399 1.00D-06 EigRej=  8.66D-07 NBFU=   399
 Precomputing XC quadrature grid using
 IXCGrd= 4 IRadAn=           5 IRanWt=          -1 IRanGd=           0 AccXCQ= 0.00D+00.
 Generated NRdTot=       0 NPtTot=           0 NUsed=           0 NTot=          32
 NSgBfM=   397   397   397   397   397 MxSgAt=    28 MxSgA2=    28.
 Leave Link  302 at Tue Feb 24 10:58:42 2015, MaxMem=  4026531840 cpu:        14.4
 (Enter /usr/software/gaussian/g09.revD01/l303.exe)
 DipDrv:  MaxL=1.
 Leave Link  303 at Tue Feb 24 10:58:42 2015, MaxMem=  4026531840 cpu:         1.3
 (Enter /usr/software/gaussian/g09.revD01/l401.exe)
 Initial guess from the checkpoint file:  "Gr_Trans_again.chk"
 B after Tr=     0.000000    0.000000    0.000008
         Rot=    0.000000    0.706998    0.707216    0.000000 Ang= 180.00 deg.
 Guess basis will be translated and rotated to current coordinates.
 JPrj=2 DoOrth=T DoCkMO=T.
 Leave Link  401 at Tue Feb 24 10:58:43 2015, MaxMem=  4026531840 cpu:        11.6
 (Enter /usr/software/gaussian/g09.revD01/l502.exe)
 Closed shell SCF:
 Using DIIS extrapolation, IDIIS=  1040.
 Integral symmetry usage will be decided dynamically.
 Keep R1 ints in memory in canonical form, NReq=3380209863.
 IVT=      516048 IEndB=      516048 NGot=  4026531840 MDV=   679536838
 LenX=   679536838 LenY=   679373181
 Requested convergence on RMS density matrix=1.00D-08 within 128 cycles.
 Requested convergence on MAX density matrix=1.00D-06.
 Requested convergence on             energy=1.00D-06.
 No special actions if energy rises.
 FoFCou: FMM=F IPFlag=           0 FMFlag=           0 FMFlg1=           0
         NFxFlg=           0 DoJE=F BraDBF=F KetDBF=F FulRan=T
         wScrn=  0.000000 ICntrl=     600 IOpCl=  0 I1Cent=           0 NGrid=           0
         NMat0=    1 NMatS0=  81810 NMatT0=    0 NMatD0=    1 NMtDS0=    0 NMtDT0=    0
 Symmetry not used in FoFCou.

 Cycle   1  Pass 1  IDiag  1:
 E= -1561.26293417237    
 DIIS: error= 3.64D-02 at cycle   1 NSaved=   1.
 NSaved= 1 IEnMin= 1 EnMin= -1561.26293417237     IErMin= 1 ErrMin= 3.64D-02
 ErrMax= 3.64D-02  0.00D+00 EMaxC= 1.00D-01 BMatC= 2.16D-01 BMatP= 2.16D-01
 IDIUse=3 WtCom= 6.36D-01 WtEn= 3.64D-01
 Coeff-Com:  0.100D+01
 Coeff-En:   0.100D+01
 Coeff:      0.100D+01
 Gap=     0.107 Goal=   None    Shift=    0.000
 GapD=    0.107 DampG=1.000 DampE=0.500 DampFc=0.5000 IDamp=-1.
 Damping current iteration by 5.00D-01
 RMSDP=2.34D-02 MaxDP=2.52D+00              OVMax= 8.14D-02

 Cycle   2  Pass 1  IDiag  1:
 E= -1561.31884994197     Delta-E=       -0.055915769601 Rises=F Damp=T
 DIIS: error= 1.74D-02 at cycle   2 NSaved=   2.
 NSaved= 2 IEnMin= 2 EnMin= -1561.31884994197     IErMin= 2 ErrMin= 1.74D-02
 ErrMax= 1.74D-02  0.00D+00 EMaxC= 1.00D-01 BMatC= 5.54D-02 BMatP= 2.16D-01
 IDIUse=3 WtCom= 8.26D-01 WtEn= 1.74D-01
 Coeff-Com: -0.817D+00 0.182D+01
 Coeff-En:   0.000D+00 0.100D+01
 Coeff:     -0.675D+00 0.167D+01
 Gap=     0.111 Goal=   None    Shift=    0.000
 RMSDP=1.30D-02 MaxDP=1.06D+00 DE=-5.59D-02 OVMax= 6.42D-02

 Cycle   3  Pass 1  IDiag  1:
 E= -1561.34760482153     Delta-E=       -0.028754879563 Rises=F Damp=F
 DIIS: error= 1.27D-02 at cycle   3 NSaved=   3.
 NSaved= 3 IEnMin= 3 EnMin= -1561.34760482153     IErMin= 3 ErrMin= 1.27D-02
 ErrMax= 1.27D-02  0.00D+00 EMaxC= 1.00D-01 BMatC= 3.58D-02 BMatP= 5.54D-02
 IDIUse=3 WtCom= 8.73D-01 WtEn= 1.27D-01
 Coeff-Com: -0.583D+00 0.119D+01 0.395D+00
 Coeff-En:   0.000D+00 0.000D+00 0.100D+01
 Coeff:     -0.509D+00 0.104D+01 0.472D+00
 Gap=     0.106 Goal=   None    Shift=    0.000
 RMSDP=4.18D-03 MaxDP=2.35D-01 DE=-2.88D-02 OVMax= 5.21D-02

 Cycle   4  Pass 1  IDiag  1:
 E= -1561.37393181571     Delta-E=       -0.026326994181 Rises=F Damp=F
 DIIS: error= 5.32D-03 at cycle   4 NSaved=   4.
 NSaved= 4 IEnMin= 4 EnMin= -1561.37393181571     IErMin= 4 ErrMin= 5.32D-03
 ErrMax= 5.32D-03  0.00D+00 EMaxC= 1.00D-01 BMatC= 7.22D-03 BMatP= 3.58D-02
 IDIUse=3 WtCom= 9.47D-01 WtEn= 5.32D-02
 Coeff-Com: -0.268D+00 0.532D+00 0.327D+00 0.409D+00
 Coeff-En:   0.000D+00 0.000D+00 0.189D+00 0.811D+00
 Coeff:     -0.254D+00 0.504D+00 0.320D+00 0.430D+00
 Gap=     0.105 Goal=   None    Shift=    0.000
 RMSDP=9.96D-04 MaxDP=3.67D-02 DE=-2.63D-02 OVMax= 1.69D-02

 Cycle   5  Pass 1  IDiag  1:
 E= -1561.37952865055     Delta-E=       -0.005596834841 Rises=F Damp=F
 DIIS: error= 7.18D-04 at cycle   5 NSaved=   5.
 NSaved= 5 IEnMin= 5 EnMin= -1561.37952865055     IErMin= 5 ErrMin= 7.18D-04
 ErrMax= 7.18D-04  0.00D+00 EMaxC= 1.00D-01 BMatC= 1.20D-04 BMatP= 7.22D-03
 IDIUse=3 WtCom= 9.93D-01 WtEn= 7.18D-03
 Coeff-Com: -0.886D-01 0.175D+00 0.133D+00 0.232D+00 0.548D+00
 Coeff-En:   0.000D+00 0.000D+00 0.000D+00 0.000D+00 0.100D+01
 Coeff:     -0.879D-01 0.173D+00 0.133D+00 0.231D+00 0.551D+00
 Gap=     0.106 Goal=   None    Shift=    0.000
 RMSDP=2.42D-04 MaxDP=1.11D-02 DE=-5.60D-03 OVMax= 3.74D-03

 Cycle   6  Pass 1  IDiag  1:
 E= -1561.37964384757     Delta-E=       -0.000115197018 Rises=F Damp=F
 DIIS: error= 1.12D-04 at cycle   6 NSaved=   6.
 NSaved= 6 IEnMin= 6 EnMin= -1561.37964384757     IErMin= 6 ErrMin= 1.12D-04
 ErrMax= 1.12D-04  0.00D+00 EMaxC= 1.00D-01 BMatC= 5.11D-06 BMatP= 1.20D-04
 IDIUse=3 WtCom= 9.99D-01 WtEn= 1.12D-03
 Coeff-Com: -0.116D-01 0.222D-01 0.268D-01 0.615D-01 0.244D+00 0.657D+00
 Coeff-En:   0.000D+00 0.000D+00 0.000D+00 0.000D+00 0.000D+00 0.100D+01
 Coeff:     -0.116D-01 0.222D-01 0.268D-01 0.614D-01 0.244D+00 0.657D+00
 Gap=     0.105 Goal=   None    Shift=    0.000
 RMSDP=6.40D-05 MaxDP=3.58D-03 DE=-1.15D-04 OVMax= 1.23D-03

 Cycle   7  Pass 1  IDiag  1:
 E= -1561.37964937329     Delta-E=       -0.000005525725 Rises=F Damp=F
 DIIS: error= 6.95D-05 at cycle   7 NSaved=   7.
 NSaved= 7 IEnMin= 7 EnMin= -1561.37964937329     IErMin= 7 ErrMin= 6.95D-05
 ErrMax= 6.95D-05  0.00D+00 EMaxC= 1.00D-01 BMatC= 1.04D-06 BMatP= 5.11D-06
 IDIUse=1 WtCom= 1.00D+00 WtEn= 0.00D+00
 Coeff-Com: -0.437D-03 0.433D-03 0.558D-02 0.159D-01 0.834D-01 0.363D+00
 Coeff-Com:  0.532D+00
 Coeff:     -0.437D-03 0.433D-03 0.558D-02 0.159D-01 0.834D-01 0.363D+00
 Coeff:      0.532D+00
 Gap=     0.105 Goal=   None    Shift=    0.000
 RMSDP=1.60D-05 MaxDP=1.29D-03 DE=-5.53D-06 OVMax= 4.63D-04

 Cycle   8  Pass 1  IDiag  1:
 E= -1561.37965042213     Delta-E=       -0.000001048837 Rises=F Damp=F
 DIIS: error= 2.31D-05 at cycle   8 NSaved=   8.
 NSaved= 8 IEnMin= 8 EnMin= -1561.37965042213     IErMin= 8 ErrMin= 2.31D-05
 ErrMax= 2.31D-05  0.00D+00 EMaxC= 1.00D-01 BMatC= 1.89D-07 BMatP= 1.04D-06
 IDIUse=1 WtCom= 1.00D+00 WtEn= 0.00D+00
 Coeff-Com:  0.238D-02-0.483D-02-0.161D-02-0.138D-02 0.100D-01 0.128D+00
 Coeff-Com:  0.330D+00 0.537D+00
 Coeff:      0.238D-02-0.483D-02-0.161D-02-0.138D-02 0.100D-01 0.128D+00
 Coeff:      0.330D+00 0.537D+00
 Gap=     0.105 Goal=   None    Shift=    0.000
 RMSDP=7.23D-06 MaxDP=2.41D-04 DE=-1.05D-06 OVMax= 1.23D-04

 Cycle   9  Pass 1  IDiag  1:
 E= -1561.37965061997     Delta-E=       -0.000000197843 Rises=F Damp=F
 DIIS: error= 3.56D-06 at cycle   9 NSaved=   9.
 NSaved= 9 IEnMin= 9 EnMin= -1561.37965061997     IErMin= 9 ErrMin= 3.56D-06
 ErrMax= 3.56D-06  0.00D+00 EMaxC= 1.00D-01 BMatC= 6.81D-09 BMatP= 1.89D-07
 IDIUse=1 WtCom= 1.00D+00 WtEn= 0.00D+00
 Coeff-Com:  0.110D-02-0.220D-02-0.117D-02-0.202D-02-0.307D-02 0.255D-01
 Coeff-Com:  0.974D-01 0.229D+00 0.656D+00
 Coeff:      0.110D-02-0.220D-02-0.117D-02-0.202D-02-0.307D-02 0.255D-01
 Coeff:      0.974D-01 0.229D+00 0.656D+00
 Gap=     0.105 Goal=   None    Shift=    0.000
 RMSDP=2.68D-06 MaxDP=1.31D-04 DE=-1.98D-07 OVMax= 3.89D-05

 Cycle  10  Pass 1  IDiag  1:
 E= -1561.37965062667     Delta-E=       -0.000000006696 Rises=F Damp=F
 DIIS: error= 1.51D-06 at cycle  10 NSaved=  10.
 NSaved=10 IEnMin=10 EnMin= -1561.37965062667     IErMin=10 ErrMin= 1.51D-06
 ErrMax= 1.51D-06  0.00D+00 EMaxC= 1.00D-01 BMatC= 1.23D-09 BMatP= 6.81D-09
 IDIUse=1 WtCom= 1.00D+00 WtEn= 0.00D+00
 Coeff-Com:  0.189D-03-0.368D-03-0.308D-03-0.791D-03-0.293D-02-0.422D-02
 Coeff-Com:  0.610D-02 0.389D-01 0.334D+00 0.630D+00
 Coeff:      0.189D-03-0.368D-03-0.308D-03-0.791D-03-0.293D-02-0.422D-02
 Coeff:      0.610D-02 0.389D-01 0.334D+00 0.630D+00
 Gap=     0.105 Goal=   None    Shift=    0.000
 RMSDP=8.87D-07 MaxDP=3.44D-05 DE=-6.70D-09 OVMax= 1.91D-05

 Cycle  11  Pass 1  IDiag  1:
 E= -1561.37965062791     Delta-E=       -0.000000001241 Rises=F Damp=F
 DIIS: error= 1.02D-06 at cycle  11 NSaved=  11.
 NSaved=11 IEnMin=11 EnMin= -1561.37965062791     IErMin=11 ErrMin= 1.02D-06
 ErrMax= 1.02D-06  0.00D+00 EMaxC= 1.00D-01 BMatC= 1.89D-10 BMatP= 1.23D-09
 IDIUse=1 WtCom= 1.00D+00 WtEn= 0.00D+00
 Coeff-Com:  0.349D-04-0.642D-04-0.854D-04-0.277D-03-0.133D-02-0.347D-02
 Coeff-Com: -0.254D-02 0.270D-02 0.137D+00 0.359D+00 0.508D+00
 Coeff:      0.349D-04-0.642D-04-0.854D-04-0.277D-03-0.133D-02-0.347D-02
 Coeff:     -0.254D-02 0.270D-02 0.137D+00 0.359D+00 0.508D+00
 Gap=     0.105 Goal=   None    Shift=    0.000
 RMSDP=3.03D-07 MaxDP=1.34D-05 DE=-1.24D-09 OVMax= 4.22D-06

 Cycle  12  Pass 1  IDiag  1:
 E= -1561.37965062812     Delta-E=       -0.000000000205 Rises=F Damp=F
 DIIS: error= 2.55D-07 at cycle  12 NSaved=  12.
 NSaved=12 IEnMin=12 EnMin= -1561.37965062812     IErMin=12 ErrMin= 2.55D-07
 ErrMax= 2.55D-07  0.00D+00 EMaxC= 1.00D-01 BMatC= 2.15D-11 BMatP= 1.89D-10
 IDIUse=1 WtCom= 1.00D+00 WtEn= 0.00D+00
 Coeff-Com: -0.160D-04 0.334D-04 0.803D-05-0.154D-04-0.319D-03-0.129D-02
 Coeff-Com: -0.243D-02-0.675D-02 0.156D-01 0.882D-01 0.275D+00 0.632D+00
 Coeff:     -0.160D-04 0.334D-04 0.803D-05-0.154D-04-0.319D-03-0.129D-02
 Coeff:     -0.243D-02-0.675D-02 0.156D-01 0.882D-01 0.275D+00 0.632D+00
 Gap=     0.105 Goal=   None    Shift=    0.000
 RMSDP=1.25D-07 MaxDP=7.35D-06 DE=-2.05D-10 OVMax= 2.69D-06

 Cycle  13  Pass 1  IDiag  1:
 E= -1561.37965062813     Delta-E=       -0.000000000016 Rises=F Damp=F
 DIIS: error= 7.83D-08 at cycle  13 NSaved=  13.
 NSaved=13 IEnMin=13 EnMin= -1561.37965062813     IErMin=13 ErrMin= 7.83D-08
 ErrMax= 7.83D-08  0.00D+00 EMaxC= 1.00D-01 BMatC= 1.70D-12 BMatP= 2.15D-11
 IDIUse=1 WtCom= 1.00D+00 WtEn= 0.00D+00
 Coeff-Com: -0.982D-05 0.199D-04 0.989D-05 0.134D-04-0.657D-04-0.372D-03
 Coeff-Com: -0.109D-02-0.412D-02-0.402D-02 0.163D-01 0.985D-01 0.322D+00
 Coeff-Com:  0.572D+00
 Coeff:     -0.982D-05 0.199D-04 0.989D-05 0.134D-04-0.657D-04-0.372D-03
 Coeff:     -0.109D-02-0.412D-02-0.402D-02 0.163D-01 0.985D-01 0.322D+00
 Coeff:      0.572D+00
 Gap=     0.105 Goal=   None    Shift=    0.000
 RMSDP=3.82D-08 MaxDP=1.70D-06 DE=-1.59D-11 OVMax= 9.90D-07

 Cycle  14  Pass 1  IDiag  1:
 E= -1561.37965062813     Delta-E=        0.000000000004 Rises=F Damp=F
 DIIS: error= 4.65D-08 at cycle  14 NSaved=  14.
 NSaved=14 IEnMin=13 EnMin= -1561.37965062813     IErMin=14 ErrMin= 4.65D-08
 ErrMax= 4.65D-08  0.00D+00 EMaxC= 1.00D-01 BMatC= 3.75D-13 BMatP= 1.70D-12
 IDIUse=1 WtCom= 1.00D+00 WtEn= 0.00D+00
 Coeff-Com: -0.418D-05 0.828D-05 0.596D-05 0.118D-04 0.119D-04-0.602D-05
 Coeff-Com: -0.247D-03-0.141D-02-0.510D-02-0.436D-02 0.154D-01 0.937D-01
 Coeff-Com:  0.364D+00 0.538D+00
 Coeff:     -0.418D-05 0.828D-05 0.596D-05 0.118D-04 0.119D-04-0.602D-05
 Coeff:     -0.247D-03-0.141D-02-0.510D-02-0.436D-02 0.154D-01 0.937D-01
 Coeff:      0.364D+00 0.538D+00
 Gap=     0.105 Goal=   None    Shift=    0.000
 RMSDP=1.27D-08 MaxDP=1.25D-06 DE= 3.64D-12 OVMax= 2.25D-07

 Cycle  15  Pass 1  IDiag  1:
 E= -1561.37965062824     Delta-E=       -0.000000000108 Rises=F Damp=F
 DIIS: error= 7.26D-09 at cycle  15 NSaved=  15.
 NSaved=15 IEnMin=15 EnMin= -1561.37965062824     IErMin=15 ErrMin= 7.26D-09
 ErrMax= 7.26D-09  0.00D+00 EMaxC= 1.00D-01 BMatC= 2.02D-14 BMatP= 3.75D-13
 IDIUse=1 WtCom= 1.00D+00 WtEn= 0.00D+00
 Coeff-Com: -0.682D-06 0.131D-05 0.155D-05 0.317D-05 0.115D-04 0.366D-04
 Coeff-Com:  0.157D-04-0.152D-03-0.158D-02-0.318D-02-0.241D-02 0.676D-02
 Coeff-Com:  0.106D+00 0.210D+00 0.685D+00
 Coeff:     -0.682D-06 0.131D-05 0.155D-05 0.317D-05 0.115D-04 0.366D-04
 Coeff:      0.157D-04-0.152D-03-0.158D-02-0.318D-02-0.241D-02 0.676D-02
 Coeff:      0.106D+00 0.210D+00 0.685D+00
 Gap=     0.105 Goal=   None    Shift=    0.000
 RMSDP=8.56D-09 MaxDP=8.06D-07 DE=-1.08D-10 OVMax= 1.08D-07

 SCF Done:  E(RB3LYP) =  -1561.37965063     A.U. after   15 cycles
            NFock= 15  Conv=0.86D-08     -V/T= 2.0059
 KE= 1.552245694593D+03 PE=-6.962545019859D+03 EE= 2.202156055396D+03
 Leave Link  502 at Tue Feb 24 11:05:24 2015, MaxMem=  4026531840 cpu:      2078.1
 (Enter /usr/software/gaussian/g09.revD01/l601.exe)
 Copying SCF densities to generalized density rwf, IOpCl= 0 IROHF=0.

 **********************************************************************

            Population analysis using the SCF density.

 **********************************************************************

 Orbital symmetries:
       Occupied  (A) (A) (A) (A) (A) (A) (A) (A) (A) (A) (A) (A)
                 (A) (A) (A) (A) (A) (A) (A) (A) (A) (A) (A) (A)
                 (A) (A) (A) (A) (A) (A) (A) (A) (A) (A) (A) (A)
                 (A) (A) (A) (A) (A) (A) (A) (A) (A) (A) (A) (A)
                 (A) (A) (A) (A) (A) (A) (A) (A) (A) (A) (A) (A)
                 (A) (A) (A) (A) (A) (A) (A) (A) (A) (A) (A) (A)
                 (A) (A) (A) (A)
       Virtual   (A) (A) (A) (A) (A) (A) (A) (A) (A) (A) (A) (A)
                 (A) (A) (A) (A) (A) (A) (A) (A) (A) (A) (A) (A)
                 (A) (A) (A) (A) (A) (A) (A) (A) (A) (A) (A) (A)
                 (A) (A) (A) (A) (A) (A) (A) (A) (A) (A) (A) (A)
                 (A) (A) (A) (A) (A) (A) (A) (A) (A) (A) (A) (A)
                 (A) (A) (A) (A) (A) (A) (A) (A) (A) (A) (A) (A)
                 (A) (A) (A) (A) (A) (A) (A) (A) (A) (A) (A) (A)
                 (A) (A) (A) (A) (A) (A) (A) (A) (A) (A) (A) (A)
                 (A) (A) (A) (A) (A) (A) (A) (A) (A) (A) (A) (A)
                 (A) (A) (A) (A) (A) (A) (A) (A) (A) (A) (A) (A)
                 (A) (A) (A) (A) (A) (A) (A) (A) (A) (A) (A) (A)
                 (A) (A) (A) (A) (A) (A) (A) (A) (A) (A) (A) (A)
                 (A) (A) (A) (A) (A) (A) (A) (A) (A) (A) (A) (A)
                 (A) (A) (A) (A) (A) (A) (A) (A) (A) (A) (A) (A)
                 (A) (A) (A) (A) (A) (A) (A) (A) (A) (A) (A) (A)
                 (A) (A) (A) (A) (A) (A) (A) (A) (A) (A) (A) (A)
                 (A) (A) (A) (A) (A) (A) (A) (A) (A) (A) (A) (A)
                 (A) (A) (A) (A) (A) (A) (A) (A) (A) (A) (A) (A)
                 (A) (A) (A) (A) (A) (A) (A) (A) (A) (A) (A) (A)
                 (A) (A) (A) (A) (A) (A) (A) (A) (A) (A) (A) (A)
                 (A) (A) (A) (A) (A) (A) (A) (A) (A) (A) (A) (A)
                 (A) (A) (A) (A) (A) (A) (A) (A) (A) (A) (A) (A)
                 (A) (A) (A) (A) (A) (A) (A) (A) (A) (A) (A) (A)
                 (A) (A) (A) (A) (A) (A) (A) (A) (A) (A) (A) (A)
                 (A) (A) (A) (A) (A) (A) (A) (A) (A) (A) (A) (A)
                 (A) (A) (A) (A) (A) (A) (A) (A) (A) (A) (A) (A)
                 (A) (A) (A) (A) (A) (A) (A) (A) (A) (A) (A)
 The electronic state is 1-A.
 Alpha  occ. eigenvalues --  -88.92382 -88.92382 -19.16587 -19.16587 -10.29681
 Alpha  occ. eigenvalues --  -10.29681 -10.25365 -10.25276 -10.24479 -10.24479
 Alpha  occ. eigenvalues --  -10.21961 -10.21961 -10.21739 -10.21739 -10.21716
 Alpha  occ. eigenvalues --  -10.21716 -10.21409 -10.21409 -10.21075 -10.21074
 Alpha  occ. eigenvalues --   -7.98171  -7.98170  -5.94653  -5.94651  -5.94297
 Alpha  occ. eigenvalues --   -5.94297  -5.93750  -5.93750  -1.07996  -1.07837
 Alpha  occ. eigenvalues --   -0.91234  -0.90630  -0.86595  -0.83826  -0.78702
 Alpha  occ. eigenvalues --   -0.78622  -0.78597  -0.74083  -0.71368  -0.69925
 Alpha  occ. eigenvalues --   -0.66768  -0.62372  -0.61376  -0.61297  -0.58340
 Alpha  occ. eigenvalues --   -0.55533  -0.51512  -0.51336  -0.50279  -0.49938
 Alpha  occ. eigenvalues --   -0.47841  -0.46579  -0.46244  -0.46077  -0.45854
 Alpha  occ. eigenvalues --   -0.44952  -0.44630  -0.44130  -0.42972  -0.40545
 Alpha  occ. eigenvalues --   -0.39275  -0.39230  -0.38859  -0.38413  -0.38344
 Alpha  occ. eigenvalues --   -0.36204  -0.35652  -0.35452  -0.33101  -0.29271
 Alpha  occ. eigenvalues --   -0.28445  -0.28190  -0.28152  -0.26979  -0.24916
 Alpha  occ. eigenvalues --   -0.22323
 Alpha virt. eigenvalues --   -0.11778  -0.06051  -0.03068  -0.02808  -0.01265
 Alpha virt. eigenvalues --   -0.00940  -0.00284   0.00696   0.00830   0.01509
 Alpha virt. eigenvalues --    0.02080   0.02825   0.03346   0.03421   0.03966
 Alpha virt. eigenvalues --    0.04605   0.04639   0.04895   0.05372   0.06028
 Alpha virt. eigenvalues --    0.06159   0.06505   0.06658   0.07493   0.07679
 Alpha virt. eigenvalues --    0.07897   0.08527   0.08710   0.09389   0.10225
 Alpha virt. eigenvalues --    0.10242   0.11293   0.11428   0.11713   0.12020
 Alpha virt. eigenvalues --    0.12300   0.12663   0.13250   0.13932   0.14332
 Alpha virt. eigenvalues --    0.14473   0.14752   0.15173   0.15673   0.15889
 Alpha virt. eigenvalues --    0.16028   0.16059   0.16675   0.16956   0.17303
 Alpha virt. eigenvalues --    0.17317   0.17763   0.18016   0.18078   0.19240
 Alpha virt. eigenvalues --    0.19460   0.19822   0.19951   0.20569   0.20646
 Alpha virt. eigenvalues --    0.21045   0.21091   0.21351   0.21877   0.22190
 Alpha virt. eigenvalues --    0.22241   0.22292   0.22948   0.23717   0.24032
 Alpha virt. eigenvalues --    0.24233   0.24472   0.24660   0.24671   0.25602
 Alpha virt. eigenvalues --    0.26653   0.26754   0.27069   0.27693   0.28381
 Alpha virt. eigenvalues --    0.28431   0.29536   0.29595   0.29739   0.30180
 Alpha virt. eigenvalues --    0.30194   0.30943   0.31689   0.32076   0.32269
 Alpha virt. eigenvalues --    0.32572   0.33561   0.33920   0.34297   0.35164
 Alpha virt. eigenvalues --    0.36331   0.36363   0.37659   0.37668   0.38866
 Alpha virt. eigenvalues --    0.39093   0.40194   0.42116   0.42501   0.43986
 Alpha virt. eigenvalues --    0.44973   0.45538   0.48120   0.48541   0.49386
 Alpha virt. eigenvalues --    0.50745   0.51789   0.53283   0.53865   0.56372
 Alpha virt. eigenvalues --    0.58312   0.60270   0.62238   0.63486   0.63568
 Alpha virt. eigenvalues --    0.63602   0.64876   0.65227   0.65738   0.65780
 Alpha virt. eigenvalues --    0.66385   0.67006   0.67438   0.67590   0.68764
 Alpha virt. eigenvalues --    0.69896   0.70849   0.71073   0.71275   0.72404
 Alpha virt. eigenvalues --    0.72501   0.72567   0.73025   0.73557   0.73948
 Alpha virt. eigenvalues --    0.74284   0.74366   0.75584   0.76203   0.77163
 Alpha virt. eigenvalues --    0.78212   0.79152   0.79394   0.79901   0.81653
 Alpha virt. eigenvalues --    0.82203   0.83560   0.84787   0.87052   0.89292
 Alpha virt. eigenvalues --    0.89836   0.89869   0.90497   0.91936   0.93558
 Alpha virt. eigenvalues --    0.93593   0.93657   0.94399   0.95060   0.96895
 Alpha virt. eigenvalues --    0.97878   0.98741   1.01273   1.01503   1.02846
 Alpha virt. eigenvalues --    1.04338   1.04582   1.05692   1.07145   1.09948
 Alpha virt. eigenvalues --    1.10226   1.11458   1.11638   1.12709   1.13715
 Alpha virt. eigenvalues --    1.15995   1.16889   1.17620   1.18189   1.19641
 Alpha virt. eigenvalues --    1.21995   1.22024   1.22728   1.24158   1.25388
 Alpha virt. eigenvalues --    1.25630   1.25818   1.26296   1.27389   1.28201
 Alpha virt. eigenvalues --    1.29752   1.31221   1.31583   1.32526   1.35929
 Alpha virt. eigenvalues --    1.36642   1.37008   1.39247   1.40881   1.41559
 Alpha virt. eigenvalues --    1.41582   1.41965   1.42888   1.43423   1.44679
 Alpha virt. eigenvalues --    1.45686   1.45969   1.46491   1.46858   1.47357
 Alpha virt. eigenvalues --    1.47367   1.49735   1.50524   1.53084   1.53917
 Alpha virt. eigenvalues --    1.54052   1.56515   1.62047   1.64053   1.72454
 Alpha virt. eigenvalues --    1.73298   1.74030   1.75162   1.77281   1.80570
 Alpha virt. eigenvalues --    1.80754   1.82484   1.84231   1.85883   1.88317
 Alpha virt. eigenvalues --    1.88428   1.88769   1.91049   1.94872   1.96065
 Alpha virt. eigenvalues --    1.96800   1.98369   1.99078   2.01884   2.03210
 Alpha virt. eigenvalues --    2.04604   2.05201   2.07588   2.08946   2.09819
 Alpha virt. eigenvalues --    2.10241   2.11160   2.14110   2.14274   2.14938
 Alpha virt. eigenvalues --    2.15389   2.20195   2.20337   2.20613   2.21766
 Alpha virt. eigenvalues --    2.21850   2.24149   2.27732   2.27966   2.28408
 Alpha virt. eigenvalues --    2.29099   2.29886   2.33023   2.36001   2.41407
 Alpha virt. eigenvalues --    2.41471   2.42222   2.46575   2.51014   2.56125
 Alpha virt. eigenvalues --    2.58043   2.58923   2.60676   2.63114   2.63164
 Alpha virt. eigenvalues --    2.66367   2.69128   2.69872   2.70711   2.72475
 Alpha virt. eigenvalues --    2.73947   2.74430   2.74887   2.77237   2.80177
 Alpha virt. eigenvalues --    2.80797   2.88096   2.89062   2.96164   2.96640
 Alpha virt. eigenvalues --    3.04399   3.10694   3.18986   3.20934   3.33279
 Alpha virt. eigenvalues --    3.33829   3.41749   3.43803   3.97875   3.97986
 Alpha virt. eigenvalues --    4.22554   4.23990   4.24426   4.25235   4.27134
 Alpha virt. eigenvalues --    4.28284   4.31257   4.31524   4.36432   4.38684
 Alpha virt. eigenvalues --    4.39766   4.42947   4.45978   4.53344   4.70818
 Alpha virt. eigenvalues --    4.71185   4.89591   4.93880
          Condensed to atoms (all electrons):
               1          2          3          4          5          6
     1  C   12.758071  -5.342208   2.093500  -0.820150   0.642787  -0.049866
     2  C   -5.342208  18.287925  -5.887639   1.122032  -0.548317  -1.167606
     3  C    2.093500  -5.887639  10.608006  -0.424056   0.249439   1.049156
     4  C   -0.820150   1.122032  -0.424056   6.103814   0.359094  -0.271714
     5  C    0.642787  -0.548317   0.249439   0.359094   6.976675  -0.316137
     6  C   -0.049866  -1.167606   1.049156  -0.271714  -0.316137   7.637746
     7  C    1.523415   0.605144  -1.253615   0.002144  -0.274835  -0.959528
     8  C   -2.829231   0.171142  -0.561316  -0.150059  -0.753547  -0.163386
     9  H    0.047834  -0.057370   0.353441  -0.062751   0.007107  -0.016380
    10  H    0.012516   0.011546  -0.024228   0.305973   0.006416  -0.011096
    11  H    0.005530  -0.028143   0.032640  -0.011642   0.356529  -0.040885
    12  H   -0.049228   0.069720  -0.028867   0.005890  -0.102118   0.320710
    13  C   -0.917263   0.128926  -0.087727  -0.001318  -0.180482  -0.148950
    14  C   -1.173670   0.129368  -0.337401  -0.010595  -0.096197  -0.105254
    15  C   -0.173362   0.004952  -0.043340  -0.003983  -0.005677  -0.018685
    16  C    0.004952   0.070459  -0.001556   0.005560  -0.005336  -0.004189
    17  C   -0.018685  -0.004189  -0.008525  -0.001100  -0.000444   0.002760
    18  C   -0.043340  -0.001556  -0.004779  -0.000011  -0.001285  -0.008525
    19  C   -0.005677  -0.005336  -0.001285  -0.000140  -0.000093  -0.000444
    20  H    0.000087  -0.000063   0.000025   0.000000   0.000000  -0.000001
    21  C   -0.003983   0.005560  -0.000011   0.000138  -0.000140  -0.001100
    22  H    0.000140   0.000008   0.000002   0.000000   0.000000   0.000006
    23  H    0.000000  -0.000001   0.000000   0.000000   0.000000   0.000000
    24  H    0.000000   0.000000   0.000000   0.000000   0.000000   0.000000
    25  S    0.147602  -0.867011   0.752585  -0.150979   0.001396   0.341636
    26  S   -0.217713   0.122782  -0.032702   0.012429  -0.033677  -0.048131
    27  O   -0.031514   0.062745   0.000404   0.002043  -0.000908   0.001565
    28  O   -0.204196  -0.109474   0.057473  -0.017793  -0.001861   0.098180
               7          8          9         10         11         12
     1  C    1.523415  -2.829231   0.047834   0.012516   0.005530  -0.049228
     2  C    0.605144   0.171142  -0.057370   0.011546  -0.028143   0.069720
     3  C   -1.253615  -0.561316   0.353441  -0.024228   0.032640  -0.028867
     4  C    0.002144  -0.150059  -0.062751   0.305973  -0.011642   0.005890
     5  C   -0.274835  -0.753547   0.007107   0.006416   0.356529  -0.102118
     6  C   -0.959528  -0.163386  -0.016380  -0.011096  -0.040885   0.320710
     7  C   11.478594  -0.084947   0.004426  -0.001449  -0.014298   0.046578
     8  C   -0.084947  10.526011  -0.006478   0.000685  -0.003673   0.010354
     9  H    0.004426  -0.006478   0.521534  -0.005078  -0.000153   0.000019
    10  H   -0.001449   0.000685  -0.005078   0.527427  -0.004837  -0.000163
    11  H   -0.014298  -0.003673  -0.000153  -0.004837   0.523411  -0.003888
    12  H    0.046578   0.010354   0.000019  -0.000163  -0.003888   0.506101
    13  C   -0.830851   1.615939   0.001220  -0.000092  -0.000130   0.006066
    14  C   -2.222549  -0.830852   0.000367   0.000023  -0.000031   0.000424
    15  C   -1.173667  -0.917263   0.000140   0.000000   0.000000   0.000087
    16  C    0.129366   0.128925   0.000008   0.000000  -0.000001  -0.000063
    17  C   -0.105253  -0.148950   0.000006   0.000000   0.000000  -0.000001
    18  C   -0.337400  -0.087727   0.000002   0.000000   0.000000   0.000025
    19  C   -0.096197  -0.180482   0.000000   0.000000   0.000000   0.000000
    20  H    0.000425   0.006066   0.000000   0.000000   0.000000   0.000000
    21  C   -0.010596  -0.001318   0.000000   0.000000   0.000000   0.000000
    22  H    0.000367   0.001220   0.000000   0.000000   0.000000   0.000000
    23  H   -0.000031  -0.000130   0.000000   0.000000   0.000000   0.000000
    24  H    0.000023  -0.000092   0.000000   0.000000   0.000000   0.000000
    25  S   -0.544689   0.412481   0.017877  -0.005436   0.000357  -0.000874
    26  S   -0.586673  -0.137904  -0.000010  -0.000005  -0.000049   0.000746
    27  O   -0.050387  -0.168680   0.000002   0.000000   0.000000  -0.000001
    28  O    0.273832  -0.020167   0.000014   0.000003   0.000065   0.005693
              13         14         15         16         17         18
     1  C   -0.917263  -1.173670  -0.173362   0.004952  -0.018685  -0.043340
     2  C    0.128926   0.129368   0.004952   0.070459  -0.004189  -0.001556
     3  C   -0.087727  -0.337401  -0.043340  -0.001556  -0.008525  -0.004779
     4  C   -0.001318  -0.010595  -0.003983   0.005560  -0.001100  -0.000011
     5  C   -0.180482  -0.096197  -0.005677  -0.005336  -0.000444  -0.001285
     6  C   -0.148950  -0.105254  -0.018685  -0.004189   0.002760  -0.008525
     7  C   -0.830851  -2.222549  -1.173667   0.129366  -0.105253  -0.337400
     8  C    1.615939  -0.830852  -0.917263   0.128925  -0.148950  -0.087727
     9  H    0.001220   0.000367   0.000140   0.000008   0.000006   0.000002
    10  H   -0.000092   0.000023   0.000000   0.000000   0.000000   0.000000
    11  H   -0.000130  -0.000031   0.000000  -0.000001   0.000000   0.000000
    12  H    0.006066   0.000424   0.000087  -0.000063  -0.000001   0.000025
    13  C   10.526009  -0.084949  -2.829230   0.171140  -0.163386  -0.561315
    14  C   -0.084949  11.478595   1.523414   0.605144  -0.959527  -1.253614
    15  C   -2.829230   1.523414  12.758066  -5.342205  -0.049865   2.093499
    16  C    0.171140   0.605144  -5.342205  18.287924  -1.167607  -5.887639
    17  C   -0.163386  -0.959527  -0.049865  -1.167607   7.637745   1.049156
    18  C   -0.561315  -1.253614   2.093499  -5.887639   1.049156  10.608006
    19  C   -0.753546  -0.274835   0.642786  -0.548316  -0.316136   0.249438
    20  H    0.010354   0.046578  -0.049228   0.069720   0.320710  -0.028867
    21  C   -0.150059   0.002144  -0.820149   1.122033  -0.271714  -0.424056
    22  H   -0.006478   0.004426   0.047834  -0.057370  -0.016380   0.353441
    23  H   -0.003673  -0.014298   0.005530  -0.028143  -0.040885   0.032640
    24  H    0.000685  -0.001449   0.012516   0.011546  -0.011096  -0.024228
    25  S   -0.137904  -0.586673  -0.217713   0.122782  -0.048132  -0.032702
    26  S    0.412481  -0.544688   0.147602  -0.867010   0.341636   0.752585
    27  O   -0.020168   0.273835  -0.204195  -0.109475   0.098180   0.057473
    28  O   -0.168680  -0.050388  -0.031514   0.062745   0.001565   0.000404
              19         20         21         22         23         24
     1  C   -0.005677   0.000087  -0.003983   0.000140   0.000000   0.000000
     2  C   -0.005336  -0.000063   0.005560   0.000008  -0.000001   0.000000
     3  C   -0.001285   0.000025  -0.000011   0.000002   0.000000   0.000000
     4  C   -0.000140   0.000000   0.000138   0.000000   0.000000   0.000000
     5  C   -0.000093   0.000000  -0.000140   0.000000   0.000000   0.000000
     6  C   -0.000444  -0.000001  -0.001100   0.000006   0.000000   0.000000
     7  C   -0.096197   0.000425  -0.010596   0.000367  -0.000031   0.000023
     8  C   -0.180482   0.006066  -0.001318   0.001220  -0.000130  -0.000092
     9  H    0.000000   0.000000   0.000000   0.000000   0.000000   0.000000
    10  H    0.000000   0.000000   0.000000   0.000000   0.000000   0.000000
    11  H    0.000000   0.000000   0.000000   0.000000   0.000000   0.000000
    12  H    0.000000   0.000000   0.000000   0.000000   0.000000   0.000000
    13  C   -0.753546   0.010354  -0.150059  -0.006478  -0.003673   0.000685
    14  C   -0.274835   0.046578   0.002144   0.004426  -0.014298  -0.001449
    15  C    0.642786  -0.049228  -0.820149   0.047834   0.005530   0.012516
    16  C   -0.548316   0.069720   1.122033  -0.057370  -0.028143   0.011546
    17  C   -0.316136   0.320710  -0.271714  -0.016380  -0.040885  -0.011096
    18  C    0.249438  -0.028867  -0.424056   0.353441   0.032640  -0.024228
    19  C    6.976675  -0.102118   0.359094   0.007107   0.356529   0.006416
    20  H   -0.102118   0.506101   0.005890   0.000019  -0.003888  -0.000163
    21  C    0.359094   0.005890   6.103814  -0.062751  -0.011642   0.305973
    22  H    0.007107   0.000019  -0.062751   0.521534  -0.000153  -0.005078
    23  H    0.356529  -0.003888  -0.011642  -0.000153   0.523411  -0.004837
    24  H    0.006416  -0.000163   0.305973  -0.005078  -0.004837   0.527427
    25  S   -0.033677   0.000746   0.012429  -0.000010  -0.000049  -0.000005
    26  S    0.001396  -0.000874  -0.150978   0.017877   0.000357  -0.005436
    27  O   -0.001861   0.005693  -0.017793   0.000014   0.000065   0.000003
    28  O   -0.000908  -0.000001   0.002043   0.000002   0.000000   0.000000
              25         26         27         28
     1  C    0.147602  -0.217713  -0.031514  -0.204196
     2  C   -0.867011   0.122782   0.062745  -0.109474
     3  C    0.752585  -0.032702   0.000404   0.057473
     4  C   -0.150979   0.012429   0.002043  -0.017793
     5  C    0.001396  -0.033677  -0.000908  -0.001861
     6  C    0.341636  -0.048131   0.001565   0.098180
     7  C   -0.544689  -0.586673  -0.050387   0.273832
     8  C    0.412481  -0.137904  -0.168680  -0.020167
     9  H    0.017877  -0.000010   0.000002   0.000014
    10  H   -0.005436  -0.000005   0.000000   0.000003
    11  H    0.000357  -0.000049   0.000000   0.000065
    12  H   -0.000874   0.000746  -0.000001   0.005693
    13  C   -0.137904   0.412481  -0.020168  -0.168680
    14  C   -0.586673  -0.544688   0.273835  -0.050388
    15  C   -0.217713   0.147602  -0.204195  -0.031514
    16  C    0.122782  -0.867010  -0.109475   0.062745
    17  C   -0.048132   0.341636   0.098180   0.001565
    18  C   -0.032702   0.752585   0.057473   0.000404
    19  C   -0.033677   0.001396  -0.001861  -0.000908
    20  H    0.000746  -0.000874   0.005693  -0.000001
    21  C    0.012429  -0.150978  -0.017793   0.002043
    22  H   -0.000010   0.017877   0.000014   0.000002
    23  H   -0.000049   0.000357   0.000065   0.000000
    24  H   -0.000005  -0.005436   0.000003   0.000000
    25  S   16.708054   0.001989   0.030783   0.051792
    26  S    0.001989  16.708054   0.051791   0.030784
    27  O    0.030783   0.051791   8.463235   0.000062
    28  O    0.051792   0.030784   0.000062   8.463236
 Mulliken charges:
               1
     1  C    0.643651
     2  C   -0.773395
     3  C   -0.499624
     4  C    0.007173
     5  C   -0.278389
     6  C   -0.119885
     7  C    0.482654
     8  C    0.173379
     9  H    0.194222
    10  H    0.187795
    11  H    0.189198
    12  H    0.212789
    13  C    0.173380
    14  C    0.482654
    15  C    0.643651
    16  C   -0.773395
    17  C   -0.119885
    18  C   -0.499624
    19  C   -0.278389
    20  H    0.212789
    21  C    0.007173
    22  H    0.194222
    23  H    0.189198
    24  H    0.187795
    25  S    0.023343
    26  S    0.023343
    27  O   -0.442911
    28  O   -0.442910
 Sum of Mulliken charges =   0.00000
 Mulliken charges with hydrogens summed into heavy atoms:
               1
     1  C    0.643651
     2  C   -0.773395
     3  C   -0.305402
     4  C    0.194968
     5  C   -0.089191
     6  C    0.092904
     7  C    0.482654
     8  C    0.173379
    13  C    0.173380
    14  C    0.482654
    15  C    0.643651
    16  C   -0.773395
    17  C    0.092904
    18  C   -0.305402
    19  C   -0.089191
    21  C    0.194968
    25  S    0.023343
    26  S    0.023343
    27  O   -0.442911
    28  O   -0.442910
 Electronic spatial extent (au):  <R**2>=           7438.6386
 Charge=              0.0000 electrons
 Dipole moment (field-independent basis, Debye):
    X=              0.0000    Y=              0.0000    Z=              0.0000  Tot=              0.0000
 Quadrupole moment (field-independent basis, Debye-Ang):
   XX=            -86.9021   YY=           -132.3219   ZZ=           -132.5083
   XY=              4.8137   XZ=              0.0000   YZ=              0.0000
 Traceless Quadrupole moment (field-independent basis, Debye-Ang):
   XX=             30.3420   YY=            -15.0778   ZZ=            -15.2642
   XY=              4.8137   XZ=              0.0000   YZ=              0.0000
 Octapole moment (field-independent basis, Debye-Ang**2):
  XXX=              0.0000  YYY=              0.0000  ZZZ=             -0.0001  XYY=              0.0000
  XXY=              0.0000  XXZ=              0.0011  XZZ=              0.0000  YZZ=              0.0000
  YYZ=              0.0001  XYZ=              0.0000
 Hexadecapole moment (field-independent basis, Debye-Ang**3):
 XXXX=          -7281.8461 YYYY=          -1478.8269 ZZZZ=           -158.4185 XXXY=             15.0727
 XXXZ=              0.0006 YYYX=             38.1796 YYYZ=              0.0000 ZZZX=              0.0003
 ZZZY=              0.0000 XXYY=          -1512.0574 XXZZ=          -1649.1109 YYZZ=           -281.7824
 XXYZ=              0.0000 YYXZ=              0.0001 ZZXY=             -8.3999
 N-N= 1.646763619241D+03 E-N=-6.962545020106D+03  KE= 1.552245694593D+03
 No NMR shielding tensors so no spin-rotation constants.
 Leave Link  601 at Tue Feb 24 11:05:27 2015, MaxMem=  4026531840 cpu:         4.4
 (Enter /usr/software/gaussian/g09.revD01/l701.exe)
 Compute integral first derivatives.
 ... and contract with generalized density number  0.
 Leave Link  701 at Tue Feb 24 11:05:27 2015, MaxMem=  4026531840 cpu:         4.2
 (Enter /usr/software/gaussian/g09.revD01/l702.exe)
 L702 exits ... SP integral derivatives will be done elsewhere.
 Leave Link  702 at Tue Feb 24 11:05:27 2015, MaxMem=  4026531840 cpu:         0.5
 (Enter /usr/software/gaussian/g09.revD01/l703.exe)
 Compute integral first derivatives, UseDBF=F ICtDFT=           0.
 Integral derivatives from FoFJK, PRISM(SPDF).
 Calling FoFJK, ICntrl=      2127 FMM=F ISym2X=0 I1Cent= 0 IOpClX= 0 NMat=1 NMatS=1 NMatT=0.
 FoFJK:  IHMeth= 1 ICntrl=    2127 DoSepK=F KAlg= 0 I1Cent=   0 FoldK=F
 IRaf=         0 NMat=   1 IRICut=       1 DoRegI=T DoRafI=F ISym2E= 0.
 FoFCou: FMM=F IPFlag=           0 FMFlag=      100000 FMFlg1=         800
         NFxFlg=           0 DoJE=F BraDBF=F KetDBF=F FulRan=T
         wScrn=  0.000000 ICntrl=    2127 IOpCl=  0 I1Cent=           0 NGrid=           0
         NMat0=    1 NMatS0=      1 NMatT0=    0 NMatD0=    1 NMtDS0=    0 NMtDT0=    0
 Symmetry not used in FoFCou.
 Leave Link  703 at Tue Feb 24 11:06:33 2015, MaxMem=  4026531840 cpu:       792.0
 (Enter /usr/software/gaussian/g09.revD01/l716.exe)
 Dipole        = 6.52061118D-07-2.02166513D-06 7.73799710D-07
 ***** Axes restored to original set *****
 -------------------------------------------------------------------
 Center     Atomic                   Forces (Hartrees/Bohr)
 Number     Number              X              Y              Z
 -------------------------------------------------------------------
      1        6          -0.007218093   -0.006690658    0.000000658
      2        6           0.006776521   -0.001795558    0.000000269
      3        6           0.002384383   -0.001807474    0.000000006
      4        6          -0.000527185    0.003730096   -0.000000129
      5        6           0.000600171    0.002176071    0.000000089
      6        6          -0.001604280   -0.001076412    0.000000015
      7        6           0.043482785    0.015069866   -0.000002093
      8        6           0.001783685    0.026321844    0.000000886
      9        1           0.008494370    0.000726440   -0.000000024
     10        1           0.003763444    0.007537281   -0.000000009
     11        1          -0.004694316    0.006981946   -0.000000113
     12        1          -0.008584735   -0.001342135    0.000000039
     13        6          -0.001783511   -0.026321868    0.000000691
     14        6          -0.043481353   -0.015069419   -0.000001674
     15        6           0.007218153    0.006690757    0.000000546
     16        6          -0.006776548    0.001795571    0.000000170
     17        6           0.001604289    0.001076388    0.000000168
     18        6          -0.002384383    0.001807469   -0.000000076
     19        6          -0.000600163   -0.002176061   -0.000000146
     20        1           0.008584731    0.001342138   -0.000000025
     21        6           0.000527178   -0.003730094    0.000000064
     22        1          -0.008494369   -0.000726439   -0.000000007
     23        1           0.004694316   -0.006981946   -0.000000051
     24        1          -0.003763445   -0.007537280   -0.000000033
     25       16           0.004155002   -0.006868573   -0.000000170
     26       16          -0.004155006    0.006868538   -0.000000106
     27        8           0.048594486    0.017573595    0.000000474
     28        8          -0.048596127   -0.017574083    0.000000579
 -------------------------------------------------------------------
 Cartesian Forces:  Max     0.048596127 RMS     0.011968723
 Leave Link  716 at Tue Feb 24 11:06:33 2015, MaxMem=  4026531840 cpu:         0.5
 (Enter /usr/software/gaussian/g09.revD01/l103.exe)

 GradGradGradGradGradGradGradGradGradGradGradGradGradGradGradGradGradGrad
 Berny optimization.
 FormGI is forming the generalized inverse of G from B-inverse, IUseBI=4.
 Internal  Forces:  Max     0.051650334 RMS     0.007246242
 Search for a local minimum.
 Step number   1 out of a maximum of  167
 All quantities printed in internal units (Hartrees-Bohrs-Radians)
 RMS Force = .72462D-02 SwitMx=.10000D-02 MixMth= 1
 Mixed Optimization -- RFO/linear search
 Second derivative matrix not updated -- first step.
 ITU=  0
     Eigenvalues ---    0.00778   0.00778   0.00928   0.00928   0.01620
     Eigenvalues ---    0.01620   0.01738   0.01738   0.01894   0.01894
     Eigenvalues ---    0.02015   0.02015   0.02200   0.02200   0.02225
     Eigenvalues ---    0.02225   0.02240   0.02240   0.02268   0.02268
     Eigenvalues ---    0.02274   0.02274   0.02284   0.02284   0.02986
     Eigenvalues ---    0.16000   0.16000   0.16000   0.16000   0.16000
     Eigenvalues ---    0.16000   0.16000   0.16000   0.22000   0.22000
     Eigenvalues ---    0.22599   0.22599   0.24516   0.24516   0.25000
     Eigenvalues ---    0.25000   0.25000   0.25000   0.25000   0.25000
     Eigenvalues ---    0.25000   0.25000   0.28074   0.28074   0.28388
     Eigenvalues ---    0.28388   0.31148   0.31148   0.34862   0.34862
     Eigenvalues ---    0.36541   0.36541   0.36621   0.36621   0.36643
     Eigenvalues ---    0.36643   0.36662   0.36662   0.41596   0.41596
     Eigenvalues ---    0.43495   0.43495   0.46392   0.46392   0.47349
     Eigenvalues ---    0.47349   0.47845   0.47845   0.48441   0.48441
     Eigenvalues ---    0.58996   1.07612   1.07612
 RFO step:  Lambda=-1.12300229D-02 EMin= 7.77671415D-03
 Linear search not attempted -- first point.
 Iteration  1 RMS(Cart)=  0.02334076 RMS(Int)=  0.00003999
 Iteration  2 RMS(Cart)=  0.00006878 RMS(Int)=  0.00000156
 Iteration  3 RMS(Cart)=  0.00000001 RMS(Int)=  0.00000156
 ITry= 1 IFail=0 DXMaxC= 8.34D-02 DCOld= 1.00D+10 DXMaxT= 3.00D-01 DXLimC= 3.00D+00 Rises=F
 Variable       Old X    -DE/DX   Delta X   Delta X   Delta X     New X
                                 (Linear)    (Quad)   (Total)
    R1        2.61782   0.01326   0.00000   0.02831   0.02831   2.64613
    R2        2.62656   0.00923   0.00000   0.01916   0.01916   2.64572
    R3        2.78116   0.00356   0.00000   0.01031   0.01032   2.79148
    R4        2.62174   0.00969   0.00000   0.01998   0.01998   2.64173
    R5        3.34986   0.00562   0.00000   0.01979   0.01979   3.36965
    R6        2.61837   0.01185   0.00000   0.02397   0.02397   2.64234
    R7        2.03122   0.00853   0.00000   0.02259   0.02259   2.05380
    R8        2.63709   0.00998   0.00000   0.02072   0.02072   2.65781
    R9        2.03243   0.00842   0.00000   0.02236   0.02236   2.05480
   R10        2.61116   0.01209   0.00000   0.02406   0.02406   2.63522
   R11        2.03059   0.00841   0.00000   0.02227   0.02227   2.05286
   R12        2.03087   0.00867   0.00000   0.02297   0.02297   2.05384
   R13        2.84725   0.00321   0.00000   0.00859   0.00859   2.85583
   R14        2.25736   0.05165   0.00000   0.04750   0.04750   2.30487
   R15        2.51743   0.02527   0.00000   0.04204   0.04204   2.55947
   R16        3.34287   0.00089   0.00000   0.00130   0.00130   3.34417
   R17        2.84725   0.00321   0.00000   0.00858   0.00859   2.85583
   R18        3.34287   0.00089   0.00000   0.00130   0.00130   3.34417
   R19        2.78116   0.00356   0.00000   0.01031   0.01032   2.79148
   R20        2.25737   0.05165   0.00000   0.04750   0.04750   2.30487
   R21        2.61782   0.01326   0.00000   0.02831   0.02831   2.64613
   R22        2.62656   0.00923   0.00000   0.01916   0.01916   2.64572
   R23        2.62174   0.00969   0.00000   0.01998   0.01998   2.64173
   R24        3.34986   0.00562   0.00000   0.01979   0.01979   3.36965
   R25        2.61116   0.01209   0.00000   0.02406   0.02406   2.63522
   R26        2.03087   0.00867   0.00000   0.02297   0.02297   2.05384
   R27        2.61837   0.01185   0.00000   0.02397   0.02397   2.64234
   R28        2.03122   0.00853   0.00000   0.02259   0.02259   2.05380
   R29        2.63709   0.00998   0.00000   0.02072   0.02072   2.65781
   R30        2.03059   0.00841   0.00000   0.02227   0.02227   2.05286
   R31        2.03243   0.00842   0.00000   0.02236   0.02236   2.05480
    A1        2.11325  -0.00077   0.00000  -0.00334  -0.00334   2.10991
    A2        1.97122  -0.00089   0.00000  -0.00078  -0.00078   1.97044
    A3        2.19872   0.00166   0.00000   0.00412   0.00411   2.20283
    A4        2.10226   0.00060   0.00000   0.00204   0.00205   2.10430
    A5        2.00002  -0.00150   0.00000  -0.00324  -0.00324   1.99678
    A6        2.18091   0.00090   0.00000   0.00120   0.00120   2.18210
    A7        2.06472  -0.00004   0.00000   0.00053   0.00053   2.06525
    A8        2.11340   0.00004   0.00000  -0.00017  -0.00017   2.11323
    A9        2.10506   0.00000   0.00000  -0.00036  -0.00036   2.10471
   A10        2.12053  -0.00056   0.00000  -0.00268  -0.00269   2.11784
   A11        2.07917   0.00012   0.00000   0.00042   0.00042   2.07959
   A12        2.08348   0.00044   0.00000   0.00226   0.00226   2.08575
   A13        2.09071   0.00072   0.00000   0.00276   0.00276   2.09347
   A14        2.09228  -0.00034   0.00000  -0.00126  -0.00126   2.09103
   A15        2.10019  -0.00038   0.00000  -0.00150  -0.00150   2.09869
   A16        2.07491   0.00005   0.00000   0.00069   0.00069   2.07560
[...]
 .00121380,0.,0.00021624,-0.00100026,0.,-0.00061530,0.00022321,0.,0.000
 29362,0.00020678,0.,-0.00018704,-0.00022377,0.,-0.00385499,0.00245228,
 0.,0.00085144,-0.00308684,0.,-0.00003293,0.00000088,0.,-0.00002032,-0.
 00005290,0.,0.00002535,-0.00006170,0.,0.00000880,0.00004579,0.,0.00396
 259,0.00067368,0.,-0.00151559,-0.00326452,0.,-0.06443297,0.02104984,0.
 ,-0.06964746,-0.27481832,0.00000010,0.00416230,-0.06234105,0.00000003,
 0.00768584,0.64922810,0.,0.,-0.00008190,0.,0.,-0.00004295,0.,0.,0.0000
 2756,0.,0.,0.00003448,0.,0.,-0.00000749,0.,0.,0.00004370,0.,0.,0.00050
 168,0.,0.,0.00083488,0.,0.,-0.00001656,0.,0.,-0.00000438,0.,0.,-0.0000
 0435,0.,0.,-0.00000902,-0.00000001,0.,-0.00012778,0.,0.,0.00648153,0.0
 0000003,0.,0.00693944,0.00000001,0.00000009,-0.05761312,0.,0.00000002,
 -0.00398897,0.00000013,-0.00000026,0.12515914,0.00006889,-0.00027186,0
 .,0.00028692,-0.00018587,0.,-0.00003398,0.00029362,0.,0.00022121,-0.00
 003271,0.,-0.00006984,-0.00011952,0.,0.00009005,0.00012708,0.,0.002262
 54,-0.00078854,0.,-0.00065355,0.00263205,0.,0.00001479,0.00001565,0.,0
 .00001145,0.00000777,0.,-0.00000622,0.00002146,0.,0.00000531,-0.000030
 24,0.,-0.00031657,-0.00105448,0.00000001,0.00145008,0.01454622,0.,0.05
 374421,-0.01866577,0.,-0.04310110,-0.03520010,0.00000002,-0.17088095,-
 0.05255614,0.00000002,-0.03186962,0.06945749,-0.00000003,0.67200775,0.
 00003573,-0.00031762,0.,0.00019454,-0.00028629,0.,-0.00001147,0.000206
 78,0.,0.00016599,-0.00007771,0.,-0.00011952,-0.00010775,0.,-0.00001642
 ,0.00014362,0.,0.00121009,-0.00029839,0.,0.00004722,0.00078356,0.,0.00
 000017,0.00000489,0.,0.00000520,-0.00000054,0.,-0.00000467,0.00000079,
 0.,0.00000240,-0.00000145,0.,0.00050542,-0.00084829,0.,0.01028885,0.00
 634158,0.,0.02736345,-0.06134713,0.00000003,-0.03228068,-0.02156334,0.
 ,-0.11646130,-0.30267174,0.00000011,0.02406932,0.04017981,0.,-0.038668
 61,0.72606878,0.,0.,-0.00006358,0.,0.,0.00005334,0.,0.,-0.00000749,0.,
 0.,0.00003842,0.,0.,-0.00004707,0.,0.,0.00008151,0.,0.,0.00020473,0.,0
 .,0.00005161,0.,0.,-0.00000675,0.,0.,-0.00000139,0.,0.,-0.00000442,0.,
 0.,-0.00000926,0.,0.,-0.00107019,0.,0.,0.00735024,0.,0.00000003,0.0085
 0212,0.00000001,0.,-0.00593354,0.00000005,0.00000012,-0.06185308,-0.00
 000001,-0.00000001,0.00721429,0.00000003,-0.00000027,0.12910457,0.0000
 2625,0.00003547,0.,-0.00001750,0.00000980,0.,-0.00000498,0.00000880,0.
 ,0.00000462,0.00000360,0.,0.00000531,0.00000240,0.,0.00001087,-0.00000
 936,0.,-0.00005188,-0.00005214,0.,-0.00002433,0.00001685,0.,0.00000298
 ,0.00000037,0.,0.00000062,0.00000227,0.,-0.00000064,0.00000276,0.,-0.0
 0000112,-0.00000395,0.,-0.00015763,-0.00011923,0.,-0.00178611,-0.00190
 585,0.,-0.01447908,-0.00080841,0.,0.00025031,0.00272378,0.,-0.33992480
 ,-0.02667906,0.,0.00051678,0.00006340,0.,-0.00724739,0.00113260,0.,0.3
 6024002,-0.00006849,0.00001224,0.,0.00000747,-0.00012466,0.,-0.0000243
 7,0.00004579,0.,0.00002840,-0.00001945,0.,-0.00003024,-0.00000145,0.,-
 0.00000933,0.00001289,0.,0.00026865,0.00002353,0.,-0.00026820,-0.00006
 304,0.,0.00000052,-0.00000714,0.,-0.00000063,0.00000519,0.,-0.00000194
 ,0.00000255,0.,-0.00000395,0.00000808,0.,0.00002475,0.00072649,0.,0.00
 148110,0.00094691,0.,0.02697604,0.00744013,0.,0.00218375,-0.00385821,0
 .,-0.02615979,-0.06308111,0.,0.00021358,-0.00090387,0.,-0.02891843,0.0
 0311899,0.,0.02761287,0.05943782,0.,0.,0.00008435,0.,0.,-0.00004225,0.
 ,0.,-0.00000902,0.,0.,0.00000112,0.,0.,-0.00000926,0.,0.,-0.00000536,0
 .,0.,-0.00010460,0.,0.,-0.00005923,0.,0.,0.00000190,0.,0.,0.00000146,0
 .,0.,0.00000356,0.,0.,0.00000647,0.,0.,0.00036380,0.,0.,-0.00377550,-0
 .00000001,0.,0.00341909,0.,0.,0.00690332,0.,0.,-0.03900949,0.,0.,-0.00
 074345,0.00000001,0.,0.00457864,0.,0.,0.02611482,-0.00001592,0.0002587
 0,0.,-0.00048945,0.00073659,0.,0.00012780,-0.00061530,0.,-0.00041175,0
 .00015442,0.,0.00022121,0.00016599,0.,-0.00010282,-0.00020280,0.,-0.00
 256995,0.00132982,0.,0.00077225,-0.00192249,0.,-0.00001991,-0.00000439
 ,0.,-0.00001396,-0.00002893,0.,0.00001529,-0.00003492,0.,0.00000462,0.
 00002840,0.,0.00043377,0.00023611,-0.00000001,-0.00542892,-0.00654592,
 0.,-0.04709402,0.02722833,0.,0.06213914,0.03721935,0.,-0.01909929,-0.0
 7983273,0.00000003,-0.19983946,0.06443556,-0.00000007,-0.31833479,0.02
 155352,-0.00000001,0.00086169,-0.00166561,0.,0.66677263,0.00004560,-0.
 00017638,0.,0.00016217,-0.00022713,0.,-0.00000254,0.00022321,0.,0.0001
 5442,-0.00002787,0.,-0.00003271,-0.00007771,0.,0.00005284,0.00005557,0
 .,0.00173686,-0.00069832,0.,-0.00064824,0.00220488,0.,0.00001050,0.000
 00956,0.,0.00000901,0.00000462,0.,-0.00000548,0.00001428,0.,0.00000360
 ,-0.00001945,0.,-0.00034737,-0.00369374,0.,0.00160852,0.00456291,0.,0.
 02007298,-0.01392398,0.,-0.01283947,-0.06343949,0.00000004,-0.03363285
 ,0.02453138,0.,0.13157672,-0.26236623,0.00000012,-0.04520748,-0.130756
 55,0.00000003,-0.00214704,-0.00504456,0.,0.02825730,0.72222008,0.,0.,0
 .00013515,0.,0.,-0.00009527,0.,0.,0.00003448,0.,0.,-0.00001618,0.,0.,0
 .00003842,0.,0.,-0.00005391,0.,0.,0.00005082,0.,0.,-0.00025599,0.,0.,-
 0.00000423,0.,0.,-0.00000748,0.,0.,-0.00000069,0.,0.,0.00000112,0.,0.,
 0.00151650,0.,0.,-0.00099678,-0.00000001,0.,-0.00631160,0.00000001,0.0
 0000004,0.00627074,0.00000002,-0.00000002,0.00620097,-0.00000008,0.000
 00010,-0.05948362,0.00000002,0.00000003,-0.06233547,0.,0.,0.00751687,0
 .00000003,-0.00000025,0.13741392,-0.00000104,-0.00003809,0.,0.00001182
 ,0.00006096,0.,0.00001194,-0.00003293,0.,-0.00001991,0.00001051,0.,0.0
 0001479,0.00000017,0.,-0.00000849,-0.00000139,0.,0.00003369,0.00003461
 ,0.,0.00022764,0.00017921,0.,-0.00000217,0.00000211,0.,-0.00000052,-0.
 00000393,0.,0.00000127,-0.00000399,0.,0.00000298,0.00000052,0.,-0.0003
 0828,-0.00027846,0.,-0.00008369,0.00116507,0.,0.00105785,-0.00249679,0
 .,-0.00912975,-0.00000669,0.,0.00058193,0.00007369,0.,-0.33828477,-0.0
 2322781,-0.00000007,0.00050023,0.00326232,0.,-0.00006766,-0.00002243,0
 .,-0.01339023,-0.00349488,0.,0.35859494,0.00002754,0.00002566,0.,0.000
 01003,0.00003946,0.,-0.00000117,0.00000088,0.,-0.00000439,0.00000956,0
 .,0.00001565,0.00000489,0.,0.00001463,-0.00001644,0.,-0.00002975,-0.00
 010211,0.,0.00018804,0.00014604,0.,0.00000211,0.00000039,0.,0.00000081
 ,0.00000175,0.,-0.00000055,0.00000268,0.,0.00000037,-0.00000714,0.,-0.
 00024345,-0.00043471,0.,-0.00169149,0.00132066,0.,-0.00080821,-0.00498
 779,0.,-0.02992442,0.00196650,0.,0.00017301,-0.00122705,0.,-0.02387560
 ,-0.06176126,0.,0.00219933,-0.00418289,0.,-0.00004248,0.00016873,0.,0.
 02742129,0.00675024,0.,0.02588235,0.06100764,0.,0.,-0.00001318,0.,0.,0
 .00002978,0.,0.,-0.00001656,0.,0.,-0.00000423,0.,0.,-0.00000675,0.,0.,
 0.00000578,0.,0.,-0.00005746,0.,0.,0.00009844,0.,0.,0.00000271,0.,0.,0
 .00000537,0.,0.,0.00000194,0.,0.,0.00000190,0.,0.,-0.00064499,0.,0.,0.
 00045277,0.,0.,0.00693611,0.,0.,0.00164196,0.,0.,-0.00058343,-0.000000
 07,0.00000002,-0.03517930,0.,0.,0.00707763,0.,0.,-0.00119455,-0.000000
 01,0.,0.00293896,0.00000007,-0.00000001,0.02422430,0.00000704,-0.00000
 003,0.,0.00001812,-0.00002965,0.,-0.00000785,0.00002535,0.,0.00001529,
 -0.00000548,0.,-0.00000622,-0.00000467,0.,0.00000372,0.00000276,0.,0.0
 0005294,-0.00007776,0.,0.00004767,0.00005120,0.,0.00000127,-0.00000055
 ,0.,0.00000079,0.00000218,0.,-0.00000112,0.00000213,0.,-0.00000064,-0.
 00000194,0.,-0.00012489,-0.00026060,0.,0.00070938,-0.00032556,0.,-0.00
 073662,-0.00300521,0.,-0.00076920,-0.00112166,0.,0.01213067,-0.0134133
 9,0.,-0.00520082,-0.00186043,0.,-0.14723822,0.13054922,-0.00000006,0.0
 0079881,0.00054096,0.,-0.01299901,0.02780081,-0.00000001,-0.00068448,0
 .00135008,0.,0.15288261,0.00003652,-0.00004035,0.,-0.00003128,0.000089
 81,0.,0.00002761,-0.00006170,0.,-0.00003492,0.00001428,0.,0.00002146,0
 .00000079,0.,-0.00002027,-0.00000719,0.,-0.00016886,0.00007638,0.,0.00
 037627,0.00002683,0.,-0.00000399,0.00000268,0.,-0.00000080,-0.00000719
 ,0.,0.00000213,-0.00000662,0.,0.00000276,0.00000255,0.,-0.00009507,-0.
 00065134,0.,0.00157532,0.00035664,0.,-0.00392027,-0.00365782,0.,-0.000
 90282,0.00007112,0.,0.01757318,-0.01909806,0.,-0.00110230,0.00116959,0
 .,0.13071141,-0.25423158,0.00000010,-0.00016507,0.00108304,0.,-0.00356
 949,0.00602811,0.,-0.00026126,0.00019456,0.,-0.14000237,0.26814774,0.,
 0.,0.00001943,0.,0.,-0.00000372,0.,0.,-0.00000435,0.,0.,-0.00000069,0.
 ,0.,-0.00000442,0.,0.,0.00000218,0.,0.,-0.00007556,0.,0.,-0.00007878,0
 .,0.,0.00000194,0.,0.,0.00000115,0.,0.,0.00000110,0.,0.,0.00000356,0.,
 0.,-0.00045166,0.,0.,0.00077038,0.,0.,0.00718949,0.,0.,-0.00053711,0.,
 0.,0.00264081,0.,0.,0.00621998,-0.00000006,0.00000010,-0.03523751,0.,0
 .,-0.00419359,0.,0.,0.00231155,0.,0.,0.00029296,0.00000006,-0.00000011
 ,0.02518219,0.00001485,0.00001198,0.,-0.00000488,0.00004369,0.,0.00000
 265,-0.00002032,0.,-0.00001396,0.00000901,0.,0.00001145,0.00000520,0.,
 0.00000064,-0.00000937,0.,-0.00013070,0.00000148,0.,0.00017613,-0.0000
 4122,0.,-0.00000052,0.00000081,0.,-0.00000049,-0.00000096,0.,0.0000007
 9,-0.00000080,0.,0.00000062,-0.00000063,0.,-0.00012864,0.00012384,0.,-
 0.00018708,0.00005871,0.,-0.00082129,0.00093790,0.,-0.00147936,0.00356
 453,0.,-0.00603027,0.00050270,0.,0.01140382,0.01781635,0.,-0.00810132,
 -0.02976118,0.00000001,-0.00040127,-0.00143966,0.,-0.11260468,-0.10915
 075,0.00000004,0.00094979,-0.00044964,0.,0.00101566,0.00036505,0.,0.11
 555646,-0.00000069,-0.00004594,0.,-0.00004122,0.00005107,0.,0.00002683
 ,-0.00005290,0.,-0.00002893,0.00000462,0.,0.00000777,-0.00000054,0.,-0
 .00002239,0.00000457,0.,-0.00006382,0.00015878,0.,-0.00000312,-0.00006
 456,0.,-0.00000393,0.00000175,0.,-0.00000096,-0.00000677,0.,0.00000218
 ,-0.00000719,0.,0.00000227,0.00000519,0.,0.00032936,-0.00025818,0.,0.0
 0009770,0.00004298,0.,0.00070717,0.00034878,0.,0.00359111,-0.00268787,
 0.,0.00000431,0.00146303,0.,-0.01277647,-0.01874312,0.,0.00117614,0.00
 212938,0.,0.00018222,0.00000086,0.,-0.10902672,-0.28778264,0.00000009,
 0.00012362,0.00100439,0.,-0.00031711,0.00078227,0.,0.11704061,0.304195
 89,0.,0.,-0.00002399,0.,0.,0.00003956,0.,0.,-0.00000438,0.,0.,-0.00000
 748,0.,0.,-0.00000139,0.,0.,-0.00000127,0.,0.,-0.00005431,0.,0.,-0.000
 07432,0.,0.,0.00000537,0.,0.,0.00000274,0.,0.,0.00000115,0.,0.,0.00000
 146,0.,0.,-0.00013645,0.,0.,-0.00101024,0.,0.,-0.00052315,0.,0.,0.0070
 7994,0.,0.,0.00651457,0.,0.00000001,0.00419698,0.,0.,0.00414674,0.,0.,
 -0.00015078,0.00000003,0.00000009,-0.03851065,0.,0.,-0.00410218,0.,0.,
 -0.00366529,-0.00000004,-0.00000010,0.02569864,-0.02278596,0.02884824,
 -0.00000004,-0.08891722,0.02918463,-0.00000007,0.01346120,-0.00539673,
 0.00000002,-0.00264701,-0.00282318,0.,0.00128799,0.00203300,0.,-0.0025
 0615,-0.00637993,0.,-0.03468408,-0.01066485,-0.00000005,-0.13703381,-0
 .01347607,-0.00000013,0.00041130,-0.00016299,0.,0.00055000,-0.00091894
 ,0.,0.00016163,-0.00001890,0.,-0.00044260,0.00091253,0.,0.00087573,-0.
 02832416,0.,-0.01053957,0.00335284,0.,-0.00104729,0.00006129,0.,0.0004
 2070,0.00046273,0.,-0.00041818,0.00014356,0.,-0.00016480,-0.00044279,0
 .,-0.00005841,0.00016811,0.,0.00003746,0.00012922,0.,-0.00042633,-0.00
 003906,0.,-0.00010661,-0.00004090,0.,0.00001971,-0.00009866,0.,-0.0000
 4590,-0.00001493,0.,0.28257182,0.02475508,-0.00862282,0.00000001,0.055
 37500,-0.10741412,0.00000014,0.01215811,-0.02826596,0.00000003,-0.0059
 1879,0.00286685,0.,0.00358767,-0.00171962,0.,-0.00176773,0.00100124,0.
 ,-0.01092674,-0.00313814,0.00000002,-0.04628041,-0.06437646,-0.0000000
 8,-0.00022231,0.00082201,0.,0.00040415,-0.00024055,0.,-0.00001599,-0.0
 0001038,0.,-0.00008033,-0.00023312,0.,-0.02010846,-0.02802624,-0.00000
 002,-0.02392760,-0.00195066,0.,0.00130284,0.00291287,-0.00000002,-0.00
 335005,0.00300280,0.,-0.00003329,-0.00117492,0.,0.00073684,-0.00223517
 ,0.,0.00110440,0.00074217,0.,0.00003619,-0.00012104,0.,-0.00161950,0.0
 0057068,0.,-0.00000316,0.00006180,0.,0.00005257,-0.00006309,0.,-0.0000
 0671,-0.00008378,0.,-0.00523634,0.23294473,0.,0.,0.00547384,-0.0000001
 0,0.00000008,-0.02752796,0.,0.00000002,0.00143582,0.00000001,0.,0.0037
 7687,-0.00000001,0.,-0.00079005,0.,0.00000001,0.00411304,0.,0.,0.00196
 428,-0.00000011,0.,-0.02222731,0.,0.,-0.00174187,0.,0.,0.00032972,0.,0
 .,-0.00045118,0.,0.,0.00018731,-0.00000002,-0.00000008,0.00145469,-0.0
 0000006,0.,-0.00238518,0.,0.,0.00247957,0.,0.,0.00045513,0.,0.,-0.0000
 9828,0.,0.,-0.00046796,0.,0.,-0.00022084,0.,0.,0.00010998,0.,0.,-0.000
 04569,0.,0.,0.00006081,0.,0.,0.00004120,0.,0.,0.00004150,0.00000029,-0
 .00000010,0.03295872,-0.00104729,0.00006129,0.,0.00042070,0.00046273,0
 .,-0.00016480,-0.00044279,0.,-0.00042633,-0.00003906,0.,-0.00005841,0.
 00016811,0.,-0.00041818,0.00014356,0.,-0.01053957,0.00335284,0.,0.0008
 7573,-0.02832416,0.,-0.00010661,-0.00004090,0.,-0.00004591,-0.00001493
 ,0.,0.00001971,-0.00009866,0.,0.00003746,0.00012922,0.,-0.13703381,-0.
 01347607,-0.00000013,-0.03468407,-0.01066486,-0.00000005,-0.02278596,0
 .02884824,-0.00000003,-0.08891723,0.02918462,-0.00000008,-0.00250615,-
 0.00637993,0.,0.01346120,-0.00539673,0.00000002,0.00128799,0.00203300,
 0.,-0.00044260,0.00091253,0.,-0.00264702,-0.00282317,0.,0.00041130,-0.
 00016299,0.,0.00016163,-0.00001890,0.,0.00055000,-0.00091894,0.,0.0004
 4793,0.00118730,0.,0.28257183,0.00130284,0.00291287,-0.00000002,-0.003
 35005,0.00300280,0.,0.00073684,-0.00223517,0.,-0.00161950,0.00057068,0
 .,0.00110440,0.00074217,0.,-0.00003329,-0.00117492,0.,-0.02392759,-0.0
 0195066,0.,-0.02010846,-0.02802624,-0.00000003,-0.00000316,0.00006180,
 0.,-0.00000670,-0.00008378,0.,0.00005257,-0.00006309,0.,0.00003619,-0.
 00012104,0.,-0.04628042,-0.06437645,-0.00000007,-0.01092674,-0.0031381
 5,0.00000002,0.02475508,-0.00862281,0.00000002,0.05537499,-0.10741412,
 0.00000013,-0.00176773,0.00100124,0.,0.01215811,-0.02826596,0.00000003
 ,0.00358767,-0.00171962,0.,-0.00008033,-0.00023312,0.,-0.00591879,0.00
 286685,0.,-0.00022231,0.00082201,0.,-0.00001599,-0.00001038,0.,0.00040
 415,-0.00024055,0.,0.00118730,-0.00606399,0.,-0.00523634,0.23294472,0.
 ,0.,0.00247957,0.,0.,0.00045513,0.,0.,-0.00046796,0.,0.,-0.00004570,0.
 ,0.,-0.00022084,0.,0.,-0.00009828,-0.00000007,0.,-0.00238518,-0.000000
 02,-0.00000008,0.00145470,0.,0.,0.00006081,0.,0.,0.00004150,0.,0.,0.00
 004120,0.,0.,0.00010998,-0.00000010,0.,-0.02222730,0.,0.,0.00196428,0.
 ,0.,0.00547383,-0.00000010,0.00000007,-0.02752796,0.,0.00000001,0.0041
 1304,0.,0.00000002,0.00143582,-0.00000001,0.,-0.00079005,0.,0.,0.00018
 731,0.00000001,0.,0.00377687,0.,0.,-0.00174187,0.,0.,-0.00045118,0.,0.
 ,0.00032972,0.,0.,0.00355653,0.00000027,-0.00000009,0.03295872,0.00042
 420,-0.00161863,0.,0.00253548,-0.00188812,0.,-0.00032768,0.00226925,0.
 ,0.00152186,-0.00079611,0.,-0.00106390,-0.00075314,0.,0.00049751,0.001
 23296,0.,0.00372943,-0.00415106,0.,-0.01203491,-0.01561916,-0.00000002
 ,0.00002469,0.00004804,0.,0.00006278,0.00006444,0.,-0.00003852,0.00009
 799,0.,0.00004726,-0.00018211,0.,-0.07692077,0.02680764,0.00000010,-0.
 59120867,-0.17917605,0.00000065,-0.02874354,-0.04850202,0.00000007,0.0
 1171695,-0.00485086,0.,-0.00519614,0.01119780,0.,0.00024038,0.00072885
 ,0.,-0.00297558,-0.00451016,0.,0.00180400,-0.00158465,0.,0.00261728,-0
 .00032414,0.,-0.00033729,-0.00005824,0.,-0.00005773,-0.00039335,0.,0.0
 0020472,-0.00013645,0.,0.00438266,0.01017622,0.00000002,-0.00280421,0.
 00862106,-0.00000001,0.69471542,0.00076150,-0.00294787,0.,0.00200847,-
 0.00030874,-0.00000004,0.00087935,0.00065659,0.,0.00051377,-0.00068333
 ,0.,-0.00075512,-0.00059892,0.,0.00051159,0.00130516,0.,-0.00038393,0.
 00135517,0.,-0.00448308,-0.00610120,0.,-0.00014883,0.00008834,0.,0.000
 09881,-0.00015162,0.,0.00001326,-0.00003670,0.,0.00010752,-0.00021947,
 0.,0.00574778,0.02785663,-0.00000001,-0.16289984,-0.15696017,0.0000002
 1,-0.05357247,-0.01936050,0.00000007,0.00800482,-0.01374903,0.00000001
 ,-0.00186859,0.00740738,0.,-0.00288128,0.00181197,0.,-0.00342540,-0.00
 071054,0.,0.00007205,0.00064389,0.,0.00144846,-0.00112498,0.,-0.000552
 17,-0.00089681,0.,0.00005187,-0.00017435,0.,-0.00010356,-0.00006788,0.
 ,0.00266039,0.00533090,0.00000006,0.00489460,0.00348399,0.,0.20266914,
 0.15482883,0.,0.,0.00009971,0.,0.,0.00258998,0.,0.,-0.00007023,0.,0.,-
 0.00013781,0.,0.,-0.00002537,0.,0.,-0.00012945,0.,0.,-0.00096007,-0.00
 000001,0.,-0.00039524,0.,0.,0.00002075,0.,0.,0.00001037,0.,0.,0.000018
 77,0.,0.,-0.00001670,0.00000008,0.,0.01667331,0.00000070,0.00000023,-0
 .06226017,0.00000006,0.00000004,0.01606506,-0.00000001,0.,0.00358863,0
 .,-0.00000001,-0.00037488,0.,0.,-0.00124841,0.,0.,-0.00079782,0.,0.,0.
 00002110,0.,0.,0.00004904,0.,0.,-0.00024768,0.,0.,0.00000720,0.,0.,0.0
 0019715,-0.00000002,0.00000003,-0.00417272,0.,-0.00000001,0.00169004,-
 0.00000081,-0.00000030,0.02986439,-0.02874354,-0.04850202,0.00000007,0
 .01171695,-0.00485086,0.,0.00024038,0.00072885,0.,0.00261728,-0.000324
 14,0.,-0.00297558,-0.00451016,0.,-0.00519614,0.01119780,0.,-0.59120866
 ,-0.17917604,0.00000062,-0.07692078,0.02680764,0.00000010,-0.00033729,
 -0.00005824,0.,0.00020472,-0.00013645,0.,-0.00005773,-0.00039336,0.,0.
 00180400,-0.00158465,0.,-0.01203491,-0.01561916,-0.00000002,0.00372943
 ,-0.00415106,0.,0.00042420,-0.00161863,0.,0.00253547,-0.00188812,0.,0.
 00049751,0.00123296,0.,-0.00032768,0.00226925,0.,-0.00106390,-0.000753
 14,0.,0.00004726,-0.00018211,0.,0.00152186,-0.00079611,0.,0.00002469,0
 .00004804,0.,-0.00003852,0.00009798,0.,0.00006278,0.00006444,0.,-0.002
 80421,0.00862106,-0.00000001,0.00438266,0.01017622,0.00000002,-0.00281
 567,0.00063088,0.,0.69471541,-0.05357246,-0.01936050,0.00000007,0.0080
 0482,-0.01374903,0.00000001,-0.00288127,0.00181197,0.,0.00144846,-0.00
 112498,0.,-0.00342540,-0.00071054,0.,-0.00186859,0.00740738,0.,-0.1628
 9986,-0.15696019,0.00000020,0.00574778,0.02785663,-0.00000001,-0.00055
 217,-0.00089681,0.,-0.00010356,-0.00006788,0.,0.00005187,-0.00017435,0
 .,0.00007205,0.00064390,0.,-0.00448308,-0.00610120,0.,-0.00038393,0.00
 135518,0.,0.00076150,-0.00294787,0.,0.00200847,-0.00030874,-0.00000004
 ,0.00051159,0.00130516,0.,0.00087935,0.00065659,0.,-0.00075512,-0.0005
 9891,0.,0.00010752,-0.00021947,0.,0.00051377,-0.00068334,0.,-0.0001488
 3,0.00008834,0.,0.00001327,-0.00003670,0.,0.00009881,-0.00015163,0.,0.
 00489460,0.00348399,0.,0.00266039,0.00533090,0.00000006,0.00063088,-0.
 00067678,0.,0.20266914,0.15482885,0.00000006,0.00000004,0.01606506,-0.
 00000001,0.,0.00358862,0.,0.,-0.00124841,0.,0.,0.00004904,0.,0.,-0.000
 79782,0.,-0.00000001,-0.00037488,0.00000066,0.00000022,-0.06226017,0.0
 0000008,0.,0.01667331,0.,0.,-0.00024768,0.,0.,0.00019715,0.,0.,0.00000
 720,0.,0.,0.00002110,-0.00000001,0.,-0.00039525,0.,0.,-0.00096007,0.,0
 .,0.00009971,0.,0.,0.00258998,0.,0.,-0.00012945,0.,0.,-0.00007023,0.,0
 .,-0.00002537,0.,0.,-0.00001670,0.,0.,-0.00013781,0.,0.,0.00002075,0.,
 0.,0.00001876,0.,0.,0.00001037,0.,-0.00000001,0.00169004,-0.00000001,0
 .00000003,-0.00417272,0.,0.,-0.00005891,-0.00000077,-0.00000029,0.0298
 6439\\0.00000046,0.00000044,0.00000002,-0.00000074,-0.00000007,-0.0000
 0007,0.00000025,0.00000006,-0.00000001,0.00000033,-0.00000009,0.,-0.00
 000005,-0.00000016,0.,0.00000013,0.00000012,0.00000002,0.00000027,-0.0
 0000035,-0.00000009,-0.00000078,0.00000036,0.00000002,0.00000015,-0.00
 000009,0.,0.00000006,0.00000009,0.,0.00000016,0.00000016,0.,0.,0.00000
 004,0.,0.00000078,-0.00000036,-0.00000001,-0.00000027,0.00000035,0.000
 00008,-0.00000046,-0.00000045,0.,0.00000074,0.00000007,0.00000006,-0.0
 0000013,-0.00000012,-0.00000002,-0.00000025,-0.00000006,0.00000001,0.0
 0000005,0.00000017,0.,0.,-0.00000004,0.,-0.00000033,0.00000009,0.,-0.0
 0000015,0.00000009,0.,-0.00000016,-0.00000016,0.,-0.00000006,-0.000000
 09,0.,0.00000060,-0.00000008,0.00000011,-0.00000060,0.00000008,-0.0000
 0011,0.00000002,-0.00000002,-0.00000008,-0.00000002,0.00000002,0.00000
 008\\\@


 The lyf so short, the craft so long to lerne.
                             -- Chaucer
 Job cpu time:       0 days  9 hours 34 minutes 47.6 seconds.
 File lengths (MBytes):  RWF=    524 Int=      0 D2E=      0 Chk=     14 Scr=      1
 Normal termination of Gaussian 03 at Tue Feb 24 12:47:13 2015.
